  44  44   0   0
  0.1447923E+02  0.5025887E-09  0.5274996E-09  0.2403053E-08  0.5000000E-15
  1.000000000000000E-004
  CAR 
 unknown system                          
     14.80735980    -29.75345701  301      5.65601799      1.00000000
    -29.753  0.0000E+00  0.0000E+00
    -29.605  0.0000E+00  0.0000E+00
    -29.456  0.0000E+00  0.0000E+00
    -29.308  0.0000E+00  0.0000E+00
    -29.159  0.0000E+00  0.0000E+00
    -29.011  0.0000E+00  0.0000E+00
    -28.862  0.0000E+00  0.0000E+00
    -28.714  0.0000E+00  0.0000E+00
    -28.565  0.0000E+00  0.0000E+00
    -28.417  0.0000E+00  0.0000E+00
    -28.268  0.0000E+00  0.0000E+00
    -28.120  0.0000E+00  0.0000E+00
    -27.971  0.0000E+00  0.0000E+00
    -27.822  0.0000E+00  0.0000E+00
    -27.674  0.1491E+03  0.4343E+01
    -27.525  0.0000E+00  0.1600E+02
    -27.377  0.0000E+00  0.1600E+02
    -27.228  0.0000E+00  0.1600E+02
    -27.080  0.0000E+00  0.1600E+02
    -26.931  0.0000E+00  0.1600E+02
    -26.783  0.0000E+00  0.1600E+02
    -26.634  0.0000E+00  0.1600E+02
    -26.486  0.0000E+00  0.1600E+02
    -26.337  0.0000E+00  0.1600E+02
    -26.189  0.0000E+00  0.1600E+02
    -26.040  0.0000E+00  0.1600E+02
    -25.892  0.0000E+00  0.1600E+02
    -25.743  0.0000E+00  0.1600E+02
    -25.594  0.0000E+00  0.1600E+02
    -25.446  0.0000E+00  0.1600E+02
    -25.297  0.0000E+00  0.1600E+02
    -25.149  0.0000E+00  0.1600E+02
    -25.000  0.0000E+00  0.1600E+02
    -24.852  0.0000E+00  0.1600E+02
    -24.703  0.0000E+00  0.1600E+02
    -24.555  0.0000E+00  0.1600E+02
    -24.406  0.0000E+00  0.1600E+02
    -24.258  0.0000E+00  0.1600E+02
    -24.109  0.0000E+00  0.1600E+02
    -23.961  0.0000E+00  0.1600E+02
    -23.812  0.0000E+00  0.1600E+02
    -23.663  0.0000E+00  0.1600E+02
    -23.515  0.0000E+00  0.1600E+02
    -23.366  0.0000E+00  0.1600E+02
    -23.218  0.0000E+00  0.1600E+02
    -23.069  0.0000E+00  0.1600E+02
    -22.921  0.0000E+00  0.1600E+02
    -22.772  0.0000E+00  0.1600E+02
    -22.624  0.0000E+00  0.1600E+02
    -22.475  0.0000E+00  0.1600E+02
    -22.327  0.0000E+00  0.1600E+02
    -22.178  0.0000E+00  0.1600E+02
    -22.030  0.0000E+00  0.1600E+02
    -21.881  0.0000E+00  0.1600E+02
    -21.733  0.0000E+00  0.1600E+02
    -21.584  0.0000E+00  0.1600E+02
    -21.435  0.0000E+00  0.1600E+02
    -21.287  0.0000E+00  0.1600E+02
    -21.138  0.0000E+00  0.1600E+02
    -20.990  0.0000E+00  0.1600E+02
    -20.841  0.0000E+00  0.1600E+02
    -20.693  0.0000E+00  0.1600E+02
    -20.544  0.0000E+00  0.1600E+02
    -20.396  0.0000E+00  0.1600E+02
    -20.247  0.0000E+00  0.1600E+02
    -20.099  0.0000E+00  0.1600E+02
    -19.950  0.0000E+00  0.1600E+02
    -19.802  0.0000E+00  0.1600E+02
    -19.653  0.0000E+00  0.1600E+02
    -19.504  0.0000E+00  0.1600E+02
    -19.356  0.0000E+00  0.1600E+02
    -19.207  0.0000E+00  0.1600E+02
    -19.059  0.0000E+00  0.1600E+02
    -18.910  0.0000E+00  0.1600E+02
    -18.762  0.0000E+00  0.1600E+02
    -18.613  0.0000E+00  0.1600E+02
    -18.465  0.0000E+00  0.1600E+02
    -18.316  0.5191E+02  0.1631E+02
    -18.168  0.3482E+03  0.3783E+02
    -18.019  0.2647E+03  0.6434E+02
    -17.871  0.0000E+00  0.9600E+02
    -17.722  0.0000E+00  0.9600E+02
    -17.574  0.0000E+00  0.9600E+02
    -17.425  0.0000E+00  0.9600E+02
    -17.276  0.0000E+00  0.9600E+02
    -17.128  0.0000E+00  0.9600E+02
    -16.979  0.0000E+00  0.9600E+02
    -16.831  0.0000E+00  0.9600E+02
    -16.682  0.0000E+00  0.9600E+02
    -16.534  0.0000E+00  0.9600E+02
    -16.385  0.0000E+00  0.9600E+02
    -16.237  0.0000E+00  0.9600E+02
    -16.088  0.0000E+00  0.9600E+02
    -15.940  0.0000E+00  0.9600E+02
    -15.791  0.0000E+00  0.9600E+02
    -15.643  0.0000E+00  0.9600E+02
    -15.494  0.0000E+00  0.9600E+02
    -15.345  0.0000E+00  0.9600E+02
    -15.197  0.0000E+00  0.9600E+02
    -15.048  0.0000E+00  0.9600E+02
    -14.900  0.0000E+00  0.9600E+02
    -14.751  0.0000E+00  0.9600E+02
    -14.603  0.0000E+00  0.9600E+02
    -14.454  0.0000E+00  0.9600E+02
    -14.306  0.0000E+00  0.9600E+02
    -14.157  0.0000E+00  0.9600E+02
    -14.009  0.0000E+00  0.9600E+02
    -13.860  0.6591E+01  0.9617E+02
    -13.712  0.9779E+01  0.9747E+02
    -13.563  0.1319E+02  0.9906E+02
    -13.414  0.2036E+02  0.1021E+03
    -13.266  0.1956E+02  0.1052E+03
    -13.117  0.2733E+02  0.1078E+03
    -12.969  0.1029E+02  0.1103E+03
    -12.820  0.1324E+02  0.1122E+03
    -12.672  0.1196E+02  0.1141E+03
    -12.523  0.1183E+02  0.1160E+03
    -12.375  0.3696E+02  0.1207E+03
    -12.226  0.5379E+02  0.1260E+03
    -12.078  0.3071E+02  0.1320E+03
    -11.929  0.4306E+02  0.1376E+03
    -11.781  0.1836E+02  0.1417E+03
    -11.632  0.7000E+01  0.1431E+03
    -11.484  0.3668E+01  0.1439E+03
    -11.335  0.0000E+00  0.1440E+03
    -11.186  0.0000E+00  0.1440E+03
    -11.038  0.0000E+00  0.1440E+03
    -10.889  0.0000E+00  0.1440E+03
    -10.741  0.0000E+00  0.1440E+03
    -10.592  0.0000E+00  0.1440E+03
    -10.444  0.0000E+00  0.1440E+03
    -10.295  0.0000E+00  0.1440E+03
    -10.147  0.3626E+02  0.1453E+03
     -9.998  0.2685E+02  0.1493E+03
     -9.850  0.8225E+02  0.1550E+03
     -9.701  0.9093E+02  0.1663E+03
     -9.553  0.4528E+02  0.1759E+03
     -9.404  0.2868E+02  0.1813E+03
     -9.255  0.1181E+02  0.1852E+03
     -9.107  0.9290E+01  0.1920E+03
     -8.958  0.0000E+00  0.1920E+03
     -8.810  0.0000E+00  0.1920E+03
     -8.661  0.0000E+00  0.1920E+03
     -8.513  0.0000E+00  0.1920E+03
     -8.364  0.0000E+00  0.1920E+03
     -8.216  0.0000E+00  0.1920E+03
     -8.067  0.0000E+00  0.1920E+03
     -7.919  0.0000E+00  0.1920E+03
     -7.770  0.0000E+00  0.1920E+03
     -7.622  0.0000E+00  0.1920E+03
     -7.473  0.0000E+00  0.1920E+03
     -7.325  0.0000E+00  0.1920E+03
     -7.176  0.0000E+00  0.1920E+03
     -7.027  0.0000E+00  0.1920E+03
     -6.879  0.0000E+00  0.1920E+03
     -6.730  0.0000E+00  0.1920E+03
     -6.582  0.0000E+00  0.1920E+03
     -6.433  0.0000E+00  0.1920E+03
     -6.285  0.0000E+00  0.1920E+03
     -6.136  0.0000E+00  0.1920E+03
     -5.988  0.5680E+01  0.1928E+03
     -5.839  0.5472E+01  0.1936E+03
     -5.691  0.5271E+01  0.1943E+03
     -5.542  0.1156E+02  0.1957E+03
     -5.394  0.1434E+02  0.1979E+03
     -5.245  0.1872E+02  0.2003E+03
     -5.096  0.1023E+02  0.2022E+03
     -4.948  0.8176E+01  0.2035E+03
     -4.799  0.7344E+01  0.2047E+03
     -4.651  0.6550E+01  0.2057E+03
     -4.502  0.7661E+01  0.2068E+03
     -4.354  0.4088E+01  0.2080E+03
     -4.205  0.0000E+00  0.2080E+03
     -4.057  0.0000E+00  0.2080E+03
     -3.908  0.0000E+00  0.2080E+03
     -3.760  0.0000E+00  0.2080E+03
     -3.611  0.0000E+00  0.2080E+03
     -3.463  0.0000E+00  0.2080E+03
     -3.314  0.0000E+00  0.2080E+03
     -3.166  0.0000E+00  0.2080E+03
     -3.017  0.0000E+00  0.2080E+03
     -2.868  0.0000E+00  0.2080E+03
     -2.720  0.0000E+00  0.2080E+03
     -2.571  0.0000E+00  0.2080E+03
     -2.423  0.0000E+00  0.2080E+03
     -2.274  0.0000E+00  0.2080E+03
     -2.126  0.1855E+01  0.2082E+03
     -1.977  0.2088E+01  0.2084E+03
     -1.829  0.2439E+01  0.2088E+03
     -1.680  0.3172E+01  0.2092E+03
     -1.532  0.6309E+01  0.2098E+03
     -1.383  0.9235E+01  0.2114E+03
     -1.235  0.7172E+01  0.2125E+03
     -1.086  0.6500E+01  0.2136E+03
     -0.937  0.1223E+02  0.2150E+03
     -0.789  0.1292E+02  0.2169E+03
     -0.640  0.1806E+02  0.2190E+03
     -0.492  0.1667E+02  0.2215E+03
     -0.343  0.1295E+02  0.2239E+03
     -0.195  0.2199E+02  0.2269E+03
     -0.046  0.2010E+02  0.2300E+03
      0.102  0.2049E+02  0.2329E+03
      0.251  0.2109E+02  0.2360E+03
      0.399  0.2537E+02  0.2396E+03
      0.548  0.3390E+02  0.2438E+03
      0.696  0.3490E+02  0.2485E+03
      0.845  0.5506E+02  0.2553E+03
      0.994  0.3282E+02  0.2610E+03
      1.142  0.2912E+02  0.2658E+03
      1.291  0.3421E+02  0.2707E+03
      1.439  0.2412E+02  0.2750E+03
      1.588  0.2944E+02  0.2790E+03
      1.736  0.3439E+02  0.2844E+03
      1.885  0.4967E+02  0.2899E+03
      2.033  0.3221E+02  0.2961E+03
      2.182  0.2877E+02  0.3008E+03
      2.330  0.5816E+02  0.3058E+03
      2.479  0.7480E+02  0.3137E+03
      2.627  0.5357E+02  0.3232E+03
      2.776  0.2836E+02  0.3293E+03
      2.924  0.4007E+02  0.3351E+03
      3.073  0.4581E+02  0.3414E+03
      3.222  0.2269E+02  0.3470E+03
      3.370  0.1827E+02  0.3499E+03
      3.519  0.1313E+02  0.3523E+03
      3.667  0.1962E+02  0.3544E+03
      3.816  0.2298E+02  0.3585E+03
      3.964  0.2390E+02  0.3620E+03
      4.113  0.1793E+02  0.3662E+03
      4.261  0.1652E+02  0.3685E+03
      4.410  0.2500E+02  0.3714E+03
      4.558  0.2384E+02  0.3752E+03
      4.707  0.4012E+02  0.3792E+03
      4.855  0.1442E+02  0.3838E+03
      5.004  0.4084E+01  0.3849E+03
      5.153  0.2495E+01  0.3852E+03
      5.301  0.5896E+01  0.3858E+03
      5.450  0.6208E+01  0.3866E+03
      5.598  0.7355E+01  0.3876E+03
      5.747  0.6202E+01  0.3886E+03
      5.895  0.6317E+01  0.3896E+03
      6.044  0.6294E+01  0.3905E+03
      6.192  0.7717E+01  0.3916E+03
      6.341  0.8459E+01  0.3927E+03
      6.489  0.9376E+01  0.3940E+03
      6.638  0.1219E+02  0.3958E+03
      6.786  0.1059E+02  0.3977E+03
      6.935  0.9245E+01  0.3992E+03
      7.083  0.8271E+01  0.4005E+03
      7.232  0.7651E+01  0.4016E+03
      7.381  0.5741E+01  0.4027E+03
      7.529  0.5695E+01  0.4035E+03
      7.678  0.5885E+01  0.4044E+03
      7.826  0.1076E+02  0.4055E+03
      7.975  0.1207E+02  0.4073E+03
      8.123  0.9366E+01  0.4090E+03
      8.272  0.8739E+01  0.4105E+03
      8.420  0.9727E+01  0.4119E+03
      8.569  0.9390E+01  0.4136E+03
      8.717  0.3018E+02  0.4157E+03
      8.866  0.1270E+02  0.4180E+03
      9.014  0.1795E+02  0.4210E+03
      9.163  0.1306E+02  0.4235E+03
      9.312  0.1324E+02  0.4251E+03
      9.460  0.1120E+02  0.4274E+03
      9.609  0.9690E+01  0.4289E+03
      9.757  0.1856E+02  0.4320E+03
      9.906  0.1800E+02  0.4348E+03
     10.054  0.1430E+02  0.4375E+03
     10.203  0.8066E+01  0.4392E+03
     10.351  0.9053E+01  0.4402E+03
     10.500  0.8353E+01  0.4417E+03
     10.648  0.6014E+01  0.4426E+03
     10.797  0.8158E+01  0.4437E+03
     10.945  0.1957E+02  0.4454E+03
     11.094  0.1316E+02  0.4475E+03
     11.242  0.1077E+02  0.4493E+03
     11.391  0.1407E+02  0.4509E+03
     11.540  0.1715E+02  0.4531E+03
     11.688  0.2013E+02  0.4563E+03
     11.837  0.2382E+02  0.4596E+03
     11.985  0.2888E+02  0.4634E+03
     12.134  0.2368E+02  0.4666E+03
     12.282  0.3127E+02  0.4708E+03
     12.431  0.2415E+02  0.4755E+03
     12.579  0.1363E+02  0.4788E+03
     12.728  0.1494E+01  0.4800E+03
     12.876  0.0000E+00  0.4800E+03
     13.025  0.0000E+00  0.4800E+03
     13.173  0.0000E+00  0.4800E+03
     13.322  0.0000E+00  0.4800E+03
     13.471  0.0000E+00  0.4800E+03
     13.619  0.0000E+00  0.4800E+03
     13.768  0.0000E+00  0.4800E+03
     13.916  0.0000E+00  0.4800E+03
     14.065  0.0000E+00  0.4800E+03
     14.213  0.0000E+00  0.4800E+03
     14.362  0.0000E+00  0.4800E+03
     14.510  0.0000E+00  0.4800E+03
     14.659  0.0000E+00  0.4800E+03
     14.807  0.0000E+00  0.4800E+03
