       N       E                     dE             d eps       ncg     rms          rms(c)
DAV:   1     0.467171198918E+04    0.46717E+04   -0.15825E+05 62120   0.160E+03
DAV:   2     0.482390376426E+03   -0.41893E+04   -0.39688E+04 65840   0.484E+02
DAV:   3    -0.272039237049E+03   -0.75443E+03   -0.72627E+03 67380   0.218E+02
DAV:   4    -0.342795563760E+03   -0.70756E+02   -0.69798E+02 84480   0.631E+01
DAV:   5    -0.346499260759E+03   -0.37037E+01   -0.36933E+01105700   0.133E+01    0.443E+01
DAV:   6    -0.292648965486E+03    0.53850E+02   -0.32607E+02 96600   0.849E+01    0.213E+01
DAV:   7    -0.285785436247E+03    0.68635E+01   -0.95990E+01 86940   0.613E+01    0.145E+01
DAV:   8    -0.285874561372E+03   -0.89125E-01   -0.31039E+01 90820   0.192E+01    0.769E+00
DAV:   9    -0.285277618597E+03    0.59694E+00   -0.18707E+01 91300   0.232E+01    0.874E+00
DAV:  10    -0.284204042447E+03    0.10736E+01   -0.47193E+00 86240   0.114E+01    0.144E+00
DAV:  11    -0.284218719093E+03   -0.14677E-01   -0.58213E-01 78440   0.198E+00    0.144E+00
DAV:  12    -0.284181904799E+03    0.36814E-01   -0.26972E-01106620   0.264E+00    0.522E-01
DAV:  13    -0.284179680773E+03    0.22240E-02   -0.43680E-02 88760   0.813E-01    0.199E-01
DAV:  14    -0.284179213325E+03    0.46745E-03   -0.60823E-03 91200   0.252E-01    0.757E-02
DAV:  15    -0.284179180674E+03    0.32651E-04   -0.78064E-04 87020   0.871E-02    0.525E-02
DAV:  16    -0.284179327183E+03   -0.14651E-03   -0.38706E-04 87980   0.958E-02    0.174E-02
DAV:  17    -0.284179342227E+03   -0.15044E-04   -0.59068E-05 64220   0.198E-02    0.845E-03
DAV:  18    -0.284179320309E+03    0.21918E-04   -0.80402E-06 38520   0.988E-03    0.361E-03
DAV:  19    -0.284179322286E+03   -0.19765E-05   -0.34675E-06 38400   0.577E-03
   1 F= -.28417932E+03 E0= -.28417932E+03  d E =0.000000E+00
