       N       E                     dE             d eps       ncg     rms          rms(c)
DAV:   1     0.596123366317E+04    0.59612E+04   -0.17913E+05 84000   0.159E+03
DAV:   2     0.613913454669E+03   -0.53473E+04   -0.48961E+04 84672   0.508E+02
DAV:   3    -0.451697481059E+03   -0.10656E+04   -0.10179E+04106624   0.217E+02
DAV:   4    -0.543297144721E+03   -0.91600E+02   -0.91220E+02127428   0.641E+01
DAV:   5    -0.547914303615E+03   -0.46172E+01   -0.46143E+01124992   0.114E+01    0.105E+02
DAV:   6    -0.404735547480E+03    0.14318E+03   -0.48920E+02125944   0.852E+01    0.417E+01
DAV:   7    -0.429376984230E+03   -0.24641E+02   -0.13805E+02116900   0.393E+01    0.352E+01
DAV:   8    -0.432105226696E+03   -0.27282E+01   -0.18660E+01121240   0.196E+01    0.225E+01
DAV:   9    -0.431142121769E+03    0.96310E+00   -0.69379E+00130928   0.118E+01    0.733E+00
DAV:  10    -0.431281441462E+03   -0.13932E+00   -0.35528E+00124432   0.690E+00    0.606E+00
DAV:  11    -0.431054885105E+03    0.22656E+00   -0.15137E+00118636   0.429E+00    0.222E+00
DAV:  12    -0.431044038998E+03    0.10846E-01   -0.20363E-01124096   0.161E+00    0.115E+00
DAV:  13    -0.431047721816E+03   -0.36828E-02   -0.50913E-02124600   0.813E-01    0.474E-01
DAV:  14    -0.431046779225E+03    0.94259E-03   -0.71410E-03122108   0.362E-01    0.172E-01
DAV:  15    -0.431047150159E+03   -0.37093E-03   -0.17541E-03125860   0.163E-01    0.161E-01
DAV:  16    -0.431047530425E+03   -0.38027E-03   -0.90596E-04125636   0.870E-02    0.149E-01
DAV:  17    -0.431047790743E+03   -0.26032E-03   -0.34028E-04132496   0.445E-02    0.139E-01
DAV:  18    -0.431048247211E+03   -0.45647E-03   -0.10663E-03133056   0.758E-02    0.123E-01
DAV:  19    -0.431048734657E+03   -0.48745E-03   -0.32832E-03128604   0.122E-01    0.750E-02
DAV:  20    -0.431048859310E+03   -0.12465E-03   -0.59439E-04129248   0.764E-02    0.486E-02
DAV:  21    -0.431048870476E+03   -0.11166E-04   -0.14309E-04123480   0.471E-02    0.250E-02
DAV:  22    -0.431048873434E+03   -0.29576E-05   -0.61844E-05112252   0.232E-02
   1 F= -.43104887E+03 E0= -.43095581E+03  d E =-.431049E+03  mag=     0.4957
       N       E                     dE             d eps       ncg     rms          rms(c)
DAV:   1    -0.464852638018E+03   -0.33804E+02   -0.25177E+03 99792   0.168E+02    0.625E+01
DAV:   2    -0.455654815750E+03    0.91978E+01   -0.35164E+02114184   0.664E+01    0.379E+01
DAV:   3    -0.433242103484E+03    0.22413E+02   -0.62527E+01118580   0.219E+01    0.237E+01
DAV:   4    -0.434375656800E+03   -0.11336E+01   -0.42209E+01114856   0.221E+01    0.148E+01
DAV:   5    -0.430349046081E+03    0.40266E+01   -0.74762E+00122864   0.866E+00    0.102E+01
DAV:   6    -0.430389657559E+03   -0.40611E-01   -0.39913E+00120120   0.615E+00    0.923E+00
DAV:   7    -0.430167481556E+03    0.22218E+00   -0.12421E+00115584   0.397E+00    0.438E+00
DAV:   8    -0.430416211138E+03   -0.24873E+00   -0.33061E-01125692   0.173E+00    0.460E+00
DAV:   9    -0.430735489140E+03   -0.31928E+00   -0.11364E+00119588   0.359E+00    0.861E+00
DAV:  10    -0.430745073470E+03   -0.95843E-02   -0.13534E-01119308   0.103E+00    0.734E+00
DAV:  11    -0.430634159198E+03    0.11091E+00   -0.17571E-01115752   0.125E+00    0.325E+00
DAV:  12    -0.430624451801E+03    0.97074E-02   -0.57424E-02121464   0.871E-01    0.202E+00
DAV:  13    -0.430602009610E+03    0.22442E-01   -0.41324E-02118916   0.652E-01    0.373E-01
DAV:  14    -0.430603109296E+03   -0.10997E-02   -0.88606E-03121912   0.307E-01    0.277E-01
DAV:  15    -0.430602881404E+03    0.22789E-03   -0.19189E-03118832   0.176E-01    0.113E-01
DAV:  16    -0.430602888579E+03   -0.71752E-05   -0.17170E-04117544   0.458E-02    0.709E-02
DAV:  17    -0.430602886404E+03    0.21758E-05   -0.90940E-05110600   0.349E-02
   2 F= -.43060289E+03 E0= -.43052630E+03  d E =0.445987E+00  mag=     1.1894
       N       E                     dE             d eps       ncg     rms          rms(c)
DAV:   1    -0.446684173100E+03   -0.16081E+02   -0.76455E+02 97104   0.903E+01    0.355E+01
DAV:   2    -0.436782529264E+03    0.99016E+01   -0.66567E+01107492   0.228E+01    0.179E+01
DAV:   3    -0.439288703695E+03   -0.25062E+01   -0.25248E+01123116   0.220E+01    0.159E+01
DAV:   4    -0.434478022325E+03    0.48107E+01   -0.53025E+00125412   0.715E+00    0.872E+00
DAV:   5    -0.433650106727E+03    0.82792E+00   -0.23881E+00125104   0.714E+00    0.697E+00
DAV:   6    -0.433493976535E+03    0.15613E+00   -0.16350E+00120876   0.352E+00    0.229E+00
DAV:   7    -0.433530641317E+03   -0.36665E-01   -0.17919E-01118104   0.102E+00    0.293E+00
DAV:   8    -0.433546687529E+03   -0.16046E-01   -0.37386E-02125160   0.528E-01    0.211E+00
DAV:   9    -0.433622792027E+03   -0.76104E-01   -0.11248E-01127428   0.809E-01    0.113E+00
DAV:  10    -0.433641517535E+03   -0.18726E-01   -0.64197E-02135968   0.907E-01    0.959E-01
DAV:  11    -0.433652421285E+03   -0.10904E-01   -0.18524E-02120204   0.445E-01    0.125E+00
DAV:  12    -0.433653144899E+03   -0.72361E-03   -0.10379E-02129696   0.378E-01    0.705E-01
DAV:  13    -0.433653366744E+03   -0.22184E-03   -0.30150E-03126420   0.229E-01    0.355E-01
DAV:  14    -0.433652918939E+03    0.44781E-03   -0.14280E-03128492   0.138E-01    0.833E-02
DAV:  15    -0.433652931385E+03   -0.12447E-04   -0.24889E-04123732   0.424E-02    0.210E-02
DAV:  16    -0.433652943346E+03   -0.11961E-04   -0.18275E-05 83776   0.170E-02    0.185E-02
DAV:  17    -0.433652940879E+03    0.24672E-05   -0.69668E-06 58912   0.146E-02
   3 F= -.43365294E+03 E0= -.43357869E+03  d E =-.260407E+01  mag=     0.9482
       N       E                     dE             d eps       ncg     rms          rms(c)
DAV:   1    -0.433660942921E+03   -0.79996E-02   -0.37865E-01 96880   0.207E+00    0.807E-01
DAV:   2    -0.433656275227E+03    0.46677E-02   -0.33718E-02 98840   0.551E-01    0.418E-01
DAV:   3    -0.433658200299E+03   -0.19251E-02   -0.18644E-02120624   0.438E-01    0.846E-01
DAV:   4    -0.433654756629E+03    0.34437E-02   -0.11278E-02114884   0.307E-01    0.168E-01
DAV:   5    -0.433654701078E+03    0.55551E-04   -0.11163E-03129836   0.111E-01    0.847E-02
DAV:   6    -0.433654744152E+03   -0.43074E-04   -0.17709E-04121436   0.419E-02    0.450E-02
DAV:   7    -0.433654813930E+03   -0.69778E-04   -0.10211E-04132384   0.202E-02    0.270E-02
DAV:   8    -0.433654832047E+03   -0.18117E-04   -0.17930E-05 73416   0.186E-02    0.135E-02
DAV:   9    -0.433654835767E+03   -0.37191E-05   -0.83407E-06 52220   0.118E-02
   4 F= -.43365484E+03 E0= -.43358013E+03  d E =-.260596E+01  mag=     0.9419
       N       E                     dE             d eps       ncg     rms          rms(c)
DAV:   1    -0.433432460939E+03    0.22237E+00   -0.82957E+01109032   0.422E+01    0.529E+00
DAV:   2    -0.434453854660E+03   -0.10214E+01   -0.96949E+00 94472   0.857E+00    0.957E+00
DAV:   3    -0.434043572978E+03    0.41028E+00   -0.13898E+00112728   0.424E+00    0.364E+00
DAV:   4    -0.433954172474E+03    0.89401E-01   -0.36565E-01119252   0.173E+00    0.147E+00
DAV:   5    -0.433969090067E+03   -0.14918E-01   -0.11014E-01122920   0.125E+00    0.146E+00
DAV:   6    -0.433966819667E+03    0.22704E-02   -0.23444E-02124740   0.677E-01    0.102E+00
DAV:   7    -0.433964274537E+03    0.25451E-02   -0.11101E-02116760   0.511E-01    0.481E-01
DAV:   8    -0.433964604102E+03   -0.32957E-03   -0.10555E-02129696   0.377E-01    0.272E-01
DAV:   9    -0.433964895608E+03   -0.29151E-03   -0.17624E-03122584   0.158E-01    0.205E-01
DAV:  10    -0.433964935345E+03   -0.39737E-04   -0.49812E-04113960   0.999E-02    0.776E-02
DAV:  11    -0.433965014516E+03   -0.79170E-04   -0.27026E-04122024   0.736E-02    0.285E-02
DAV:  12    -0.433965016648E+03   -0.21320E-05   -0.52841E-05105504   0.294E-02
   5 F= -.43396502E+03 E0= -.43389262E+03  d E =-.310181E+00  mag=     0.9135
       N       E                     dE             d eps       ncg     rms          rms(c)
DAV:   1    -0.433960255332E+03    0.47592E-02   -0.13574E+00105476   0.548E+00    0.672E-01
DAV:   2    -0.433976356612E+03   -0.16101E-01   -0.16215E-01 91392   0.110E+00    0.120E+00
DAV:   3    -0.433969738817E+03    0.66178E-02   -0.23443E-02112280   0.484E-01    0.331E-01
DAV:   4    -0.433968940233E+03    0.79858E-03   -0.46840E-03115052   0.186E-01    0.112E-01
DAV:   5    -0.433968979721E+03   -0.39488E-04   -0.13963E-03128548   0.133E-01    0.879E-02
DAV:   6    -0.433968974687E+03    0.50346E-05   -0.23527E-04105336   0.706E-02    0.506E-02
DAV:   7    -0.433968998571E+03   -0.23884E-04   -0.82514E-05 89488   0.426E-02    0.382E-02
DAV:   8    -0.433969018314E+03   -0.19744E-04   -0.73158E-05105308   0.362E-02    0.171E-02
DAV:   9    -0.433969023128E+03   -0.48140E-05   -0.17854E-05 63616   0.168E-02
   6 F= -.43396902E+03 E0= -.43389653E+03  d E =-.314187E+00  mag=     0.9091
       N       E                     dE             d eps       ncg     rms          rms(c)
DAV:   1    -0.433878656527E+03    0.90362E-01   -0.43601E+01 96628   0.251E+01    0.280E+00
DAV:   2    -0.434091042316E+03   -0.21239E+00   -0.31158E+00 85260   0.481E+00    0.201E+00
DAV:   3    -0.434102356810E+03   -0.11314E-01   -0.33397E-01116732   0.241E+00    0.227E+00
DAV:   4    -0.434080817327E+03    0.21539E-01   -0.16518E-01113540   0.124E+00    0.146E+00
DAV:   5    -0.434070920831E+03    0.98965E-02   -0.66798E-02132216   0.109E+00    0.487E-01
DAV:   6    -0.434070403989E+03    0.51684E-03   -0.14755E-02115332   0.569E-01    0.291E-01
DAV:   7    -0.434070399606E+03    0.43829E-05   -0.21429E-03122220   0.226E-01    0.181E-01
DAV:   8    -0.434070824370E+03   -0.42476E-03   -0.12877E-03135576   0.135E-01    0.932E-02
DAV:   9    -0.434070909324E+03   -0.84954E-04   -0.49787E-04128716   0.917E-02    0.654E-02
DAV:  10    -0.434070906703E+03    0.26204E-05   -0.13584E-04117124   0.469E-02    0.284E-02
DAV:  11    -0.434070904343E+03    0.23600E-05   -0.23088E-05 72912   0.204E-02
   7 F= -.43407090E+03 E0= -.43399897E+03  d E =-.101881E+00  mag=     0.9382
       N       E                     dE             d eps       ncg     rms          rms(c)
DAV:   1    -0.434059808048E+03    0.11099E-01   -0.39095E+00 96684   0.753E+00    0.835E-01
DAV:   2    -0.434078262751E+03   -0.18455E-01   -0.27513E-01 85092   0.144E+00    0.597E-01
DAV:   3    -0.434079633660E+03   -0.13709E-02   -0.31289E-02114408   0.761E-01    0.732E-01
DAV:   4    -0.434077295042E+03    0.23386E-02   -0.12965E-02115612   0.357E-01    0.381E-01
DAV:   5    -0.434076569515E+03    0.72553E-03   -0.52355E-03130592   0.330E-01    0.134E-01
DAV:   6    -0.434076511813E+03    0.57702E-04   -0.12731E-03114520   0.165E-01    0.742E-02
DAV:   7    -0.434076511998E+03   -0.18579E-06   -0.17912E-04120260   0.655E-02    0.460E-02
DAV:   8    -0.434076544262E+03   -0.32264E-04   -0.97260E-05125552   0.356E-02    0.195E-02
DAV:   9    -0.434076547359E+03   -0.30971E-05   -0.37730E-05 89068   0.280E-02
   8 F= -.43407655E+03 E0= -.43400461E+03  d E =-.107524E+00  mag=     0.9476
       N       E                     dE             d eps       ncg     rms          rms(c)
DAV:   1    -0.434048403115E+03    0.28141E-01   -0.24134E+01 96600   0.173E+01    0.213E+00
DAV:   2    -0.434191941843E+03   -0.14354E+00   -0.15344E+00 95620   0.361E+00    0.357E+00
DAV:   3    -0.434132939594E+03    0.59002E-01   -0.25858E-01111216   0.188E+00    0.128E+00
DAV:   4    -0.434120693404E+03    0.12246E-01   -0.58800E-02120400   0.925E-01    0.598E-01
DAV:   5    -0.434119396131E+03    0.12973E-02   -0.28369E-02127008   0.781E-01    0.367E-01
DAV:   6    -0.434119122327E+03    0.27380E-03   -0.66981E-03121576   0.355E-01    0.206E-01
DAV:   7    -0.434119235658E+03   -0.11333E-03   -0.12489E-03111076   0.152E-01    0.118E-01
DAV:   8    -0.434119483940E+03   -0.24828E-03   -0.52870E-04131040   0.858E-02    0.652E-02
DAV:   9    -0.434119555539E+03   -0.71599E-04   -0.19325E-04122864   0.540E-02    0.207E-02
DAV:  10    -0.434119572679E+03   -0.17140E-04   -0.61618E-05101220   0.296E-02    0.185E-02
DAV:  11    -0.434119573124E+03   -0.44449E-06   -0.10033E-05 56112   0.160E-02
   9 F= -.43411957E+03 E0= -.43405058E+03  d E =-.430258E-01  mag=     0.9668
       N       E                     dE             d eps       ncg     rms          rms(c)
DAV:   1    -0.434118182035E+03    0.13906E-02   -0.77709E-01 96684   0.311E+00    0.377E-01
DAV:   2    -0.434122571562E+03   -0.43895E-02   -0.49268E-02 93128   0.640E-01    0.607E-01
DAV:   3    -0.434120919433E+03    0.16521E-02   -0.79483E-03113064   0.321E-01    0.206E-01
DAV:   4    -0.434120576516E+03    0.34292E-03   -0.16074E-03122612   0.145E-01    0.867E-02
DAV:   5    -0.434120547266E+03    0.29249E-04   -0.82103E-04129444   0.135E-01    0.534E-02
DAV:   6    -0.434120543308E+03    0.39587E-05   -0.18395E-04115192   0.626E-02    0.280E-02
DAV:   7    -0.434120550276E+03   -0.69688E-05   -0.28343E-05 80080   0.233E-02
  10 F= -.43412055E+03 E0= -.43405197E+03  d E =-.440029E-01  mag=     0.9699
       N       E                     dE             d eps       ncg     rms          rms(c)
DAV:   1    -0.434115956418E+03    0.45869E-02   -0.99203E+00 92652   0.105E+01    0.128E+00
DAV:   2    -0.434144080840E+03   -0.28124E-01   -0.50765E-01 84672   0.193E+00    0.897E-01
DAV:   3    -0.434146059956E+03   -0.19791E-02   -0.57302E-02116872   0.103E+00    0.113E+00
DAV:   4    -0.434138739426E+03    0.73205E-02   -0.30218E-02113316   0.558E-01    0.481E-01
DAV:   5    -0.434137424287E+03    0.13151E-02   -0.10696E-02130788   0.491E-01    0.204E-01
DAV:   6    -0.434137186416E+03    0.23787E-03   -0.24406E-03118384   0.232E-01    0.103E-01
DAV:   7    -0.434137192788E+03   -0.63729E-05   -0.36203E-04119532   0.932E-02    0.618E-02
DAV:   8    -0.434137228799E+03   -0.36011E-04   -0.19273E-04124404   0.558E-02    0.319E-02
DAV:   9    -0.434137234484E+03   -0.56851E-05   -0.75914E-05116788   0.357E-02
  11 F= -.43413723E+03 E0= -.43406888E+03  d E =-.166842E-01  mag=     0.9811
       N       E                     dE             d eps       ncg     rms          rms(c)
DAV:   1    -0.434136435923E+03    0.79288E-03   -0.63701E-01 92792   0.266E+00    0.321E-01
DAV:   2    -0.434138226171E+03   -0.17902E-02   -0.32279E-02 84868   0.487E-01    0.216E-01
DAV:   3    -0.434138360607E+03   -0.13444E-03   -0.36154E-03115388   0.261E-01    0.285E-01
DAV:   4    -0.434137917054E+03    0.44355E-03   -0.17510E-03112056   0.138E-01    0.118E-01
DAV:   5    -0.434137842704E+03    0.74350E-04   -0.61060E-04132692   0.118E-01    0.504E-02
DAV:   6    -0.434137825212E+03    0.17491E-04   -0.15087E-04114352   0.582E-02    0.247E-02
DAV:   7    -0.434137824263E+03    0.94948E-06   -0.18324E-05 70532   0.229E-02
  12 F= -.43413782E+03 E0= -.43406957E+03  d E =-.172740E-01  mag=     0.9838
       N       E                     dE             d eps       ncg     rms          rms(c)
DAV:   1    -0.434134526642E+03    0.32986E-02   -0.41683E+00 92708   0.670E+00    0.921E-01
DAV:   2    -0.434150160477E+03   -0.15634E-01   -0.21683E-01 91980   0.137E+00    0.114E+00
DAV:   3    -0.434145486537E+03    0.46739E-02   -0.39579E-02114492   0.733E-01    0.641E-01
DAV:   4    -0.434142601569E+03    0.28850E-02   -0.97327E-03116116   0.378E-01    0.211E-01
DAV:   5    -0.434142481278E+03    0.12029E-03   -0.43610E-03130340   0.316E-01    0.128E-01
DAV:   6    -0.434142462997E+03    0.18281E-04   -0.90172E-04115528   0.133E-01    0.707E-02
DAV:   7    -0.434142495112E+03   -0.32116E-04   -0.15237E-04110992   0.512E-02    0.508E-02
DAV:   8    -0.434142549573E+03   -0.54461E-04   -0.79006E-05113344   0.365E-02    0.301E-02
DAV:   9    -0.434142573359E+03   -0.23786E-04   -0.56014E-05107492   0.293E-02    0.101E-02
DAV:  10    -0.434142576208E+03   -0.28487E-05   -0.13017E-05 56392   0.142E-02
  13 F= -.43414258E+03 E0= -.43407437E+03  d E =-.475194E-02  mag=     0.9859
       N       E                     dE             d eps       ncg     rms          rms(c)
DAV:   1    -0.434142571007E+03    0.23518E-05   -0.32746E-02 93016   0.594E-01    0.833E-02
DAV:   2    -0.434142697167E+03   -0.12616E-03   -0.17245E-03 92176   0.122E-01    0.109E-01
DAV:   3    -0.434142654690E+03    0.42478E-04   -0.30413E-04111552   0.652E-02    0.558E-02
DAV:   4    -0.434142631402E+03    0.23288E-04   -0.76151E-05107856   0.337E-02    0.174E-02
DAV:   5    -0.434142628979E+03    0.24229E-05   -0.31004E-05 80948   0.279E-02
  14 F= -.43414263E+03 E0= -.43407443E+03  d E =-.480472E-02  mag=     0.9858
       N       E                     dE             d eps       ncg     rms          rms(c)
DAV:   1    -0.434145654265E+03   -0.30229E-02   -0.11539E+00 86912   0.290E+00    0.615E-01
DAV:   2    -0.434145505872E+03    0.14839E-03   -0.47416E-02 92400   0.604E-01    0.339E-01
DAV:   3    -0.434145930541E+03   -0.42467E-03   -0.90326E-03114128   0.341E-01    0.539E-01
DAV:   4    -0.434144361231E+03    0.15693E-02   -0.54644E-03112476   0.229E-01    0.172E-01
DAV:   5    -0.434144198952E+03    0.16228E-03   -0.10392E-03134820   0.128E-01    0.714E-02
DAV:   6    -0.434144197996E+03    0.95620E-06   -0.14115E-04118552   0.489E-02    0.383E-02
DAV:   7    -0.434144212872E+03   -0.14876E-04   -0.40306E-05105756   0.307E-02    0.241E-02
DAV:   8    -0.434144216334E+03   -0.34613E-05   -0.40720E-05 97328   0.262E-02
  15 F= -.43414422E+03 E0= -.43407648E+03  d E =-.158735E-02  mag=     0.9950
       N       E                     dE             d eps       ncg     rms          rms(c)
DAV:   1    -0.434144214942E+03   -0.20701E-05   -0.30743E-04 94892   0.492E-02    0.903E-03
DAV:   2    -0.434144215463E+03   -0.52019E-06   -0.11107E-05 60984   0.126E-02    0.551E-03
DAV:   3    -0.434144215485E+03   -0.22483E-07   -0.40753E-06 47488   0.103E-02    0.487E-03
DAV:   4    -0.434144215452E+03    0.33586E-07   -0.21015E-06 45276   0.587E-03    0.451E-03
DAV:   5    -0.434144215343E+03    0.10838E-06   -0.10075E-06 45080   0.350E-03
  16 F= -.43414422E+03 E0= -.43407654E+03  d E =-.158636E-02  mag=     0.9951
       N       E                     dE             d eps       ncg     rms          rms(c)
DAV:   1    -0.434144560593E+03   -0.34514E-03   -0.44232E-01 84084   0.158E+00    0.215E-01
DAV:   2    -0.434145448989E+03   -0.88840E-03   -0.12152E-02104048   0.323E-01    0.299E-01
DAV:   3    -0.434145059263E+03    0.38973E-03   -0.19153E-03114688   0.165E-01    0.135E-01
DAV:   4    -0.434144901437E+03    0.15783E-03   -0.51566E-04114268   0.869E-02    0.464E-02
DAV:   5    -0.434144894392E+03    0.70453E-05   -0.28820E-04126084   0.787E-02    0.330E-02
DAV:   6    -0.434144892644E+03    0.17478E-05   -0.69442E-05 94304   0.396E-02
  17 F= -.43414489E+03 E0= -.43407736E+03  d E =-.677301E-03  mag=     0.9961
