 running on   32 total cores
 distrk:  each k-point on   32 cores,    1 groups
 distr:  one band on    1 cores,   32 groups
 using from now: INCAR     
 vasp.5.4.4.18Apr17-6-g9f103f2a35 (build Nov 08 2019 15:50:39) complex          
  
 POSCAR found type information on POSCAR  Al As
 POSCAR found :  2 types and       4 ions
 scaLAPACK will be used

 ----------------------------------------------------------------------------- 
|                                                                             |
|           W    W    AA    RRRRR   N    N  II  N    N   GGGG   !!!           |
|           W    W   A  A   R    R  NN   N  II  NN   N  G    G  !!!           |
|           W    W  A    A  R    R  N N  N  II  N N  N  G       !!!           |
|           W WW W  AAAAAA  RRRRR   N  N N  II  N  N N  G  GGG   !            |
|           WW  WW  A    A  R   R   N   NN  II  N   NN  G    G                |
|           W    W  A    A  R    R  N    N  II  N    N   GGGG   !!!           |
|                                                                             |
|      For optimal performance we recommend to set                            |
|        NCORE= 4 - approx SQRT( number of cores)                             |
|      NCORE specifies how many cores store one orbital (NPAR=cpu/NCORE).     |
|      This setting can  greatly improve the performance of VASP for DFT.     |
|      The default,   NCORE=1            might be grossly inefficient         |
|      on modern multi-core architectures or massively parallel machines.     |
|      Do your own testing !!!!                                               |
|      Unfortunately you need to use the default for GW and RPA calculations. |
|      (for HF NCORE is supported but not extensively tested yet)             |
|                                                                             |
 ----------------------------------------------------------------------------- 

 LDA part: xc-table for Pade appr. of Perdew
 POSCAR, INCAR and KPOINTS ok, starting setup
 FFT: planning ...
 WAVECAR not read
 entering main loop
       N       E                     dE             d eps       ncg     rms          rms(c)
DAV:   1     0.995265976448E+01    0.99527E+01   -0.65046E+03  6080   0.386E+02
DAV:   2    -0.177972780247E+02   -0.27750E+02   -0.27371E+02  8960   0.424E+01
DAV:   3    -0.180336455173E+02   -0.23637E+00   -0.23635E+00  6848   0.556E+00
DAV:   4    -0.180341143039E+02   -0.46879E-03   -0.46879E-03 11584   0.253E-01
DAV:   5    -0.180341143157E+02   -0.11825E-07   -0.12214E-07  6624   0.118E-03    0.388E+00
DAV:   6    -0.178263501362E+02    0.20776E+00   -0.46394E-01  9216   0.108E+00    0.226E+00
DAV:   7    -0.177934591760E+02    0.32891E-01   -0.16386E-01  9856   0.756E-01    0.709E-01
DAV:   8    -0.177922193240E+02    0.12399E-02   -0.88553E-03  7616   0.230E-01    0.845E-02
DAV:   9    -0.177923110342E+02   -0.91710E-04   -0.34273E-04 10592   0.547E-02    0.505E-02
DAV:  10    -0.177923495722E+02   -0.38538E-04   -0.56809E-05  7840   0.200E-02    0.904E-03
DAV:  11    -0.177923510593E+02   -0.14871E-05   -0.55438E-06  8064   0.589E-03
   1 F= -.17792351E+02 E0= -.17792179E+02  d E =-.343547E-03
 Found     4 degrees of freedom:
 Adding 6 more for cell shape distortion
 Finite differences POTIM= 0.01500 DOF=  10
 bond charge predicted
       N       E                     dE             d eps       ncg     rms          rms(c)
DAV:   1    -0.177962578381E+02   -0.39083E-02   -0.15984E+00 22400   0.249E+00    0.804E-01
DAV:   2    -0.177737249516E+02    0.22533E-01   -0.50189E-02 15296   0.594E-01    0.425E-01
DAV:   3    -0.177662775377E+02    0.74474E-02   -0.19754E-02 24224   0.292E-01    0.113E-01
DAV:   4    -0.177659084171E+02    0.36912E-03   -0.10724E-03 16768   0.854E-02    0.649E-02
DAV:   5    -0.177658679479E+02    0.40469E-04   -0.94658E-05 24320   0.244E-02    0.279E-02
DAV:   6    -0.177658685550E+02   -0.60703E-06   -0.55088E-06 12928   0.626E-03
   2 F= -.17765869E+02 E0= -.17765737E+02  d E =-.263827E-03
 Finite differences progress:
  Degree of freedom:   1/ 10
  Displacement:        1/  4
  Total:               1/ 40
 bond charge predicted
       N       E                     dE             d eps       ncg     rms          rms(c)
DAV:   1    -0.177923799194E+02   -0.26512E-01   -0.82255E-01 23328   0.174E+00    0.394E-01
DAV:   2    -0.177875354443E+02    0.48445E-02   -0.15429E-02 14784   0.366E-01    0.217E-01
DAV:   3    -0.177857465046E+02    0.17889E-02   -0.48276E-03 24800   0.146E-01    0.576E-02
DAV:   4    -0.177856783779E+02    0.68127E-04   -0.18894E-04 15616   0.396E-02    0.372E-02
DAV:   5    -0.177856680535E+02    0.10324E-04   -0.32521E-05 24064   0.124E-02    0.120E-02
DAV:   6    -0.177856680748E+02   -0.21230E-07   -0.88898E-07 10432   0.291E-03
   3 F= -.17785668E+02 E0= -.17785551E+02  d E =-.234803E-03
 Finite differences progress:
  Degree of freedom:   1/ 10
  Displacement:        2/  4
  Total:               2/ 40
 bond charge predicted
       N       E                     dE             d eps       ncg     rms          rms(c)
DAV:   1    -0.178152154755E+02   -0.29547E-01   -0.13215E+00 23232   0.232E+00    0.835E-01
DAV:   2    -0.177927208063E+02    0.22495E-01   -0.43885E-02 15744   0.548E-01    0.431E-01
DAV:   3    -0.177853519565E+02    0.73688E-02   -0.19314E-02 23968   0.290E-01    0.119E-01
DAV:   4    -0.177850650068E+02    0.28695E-03   -0.79472E-04 16800   0.802E-02    0.733E-02
DAV:   5    -0.177850329456E+02    0.32061E-04   -0.90924E-05 23904   0.223E-02    0.214E-02
DAV:   6    -0.177850330415E+02   -0.95890E-07   -0.29146E-06 12032   0.482E-03
   4 F= -.17785033E+02 E0= -.17784872E+02  d E =-.321279E-03
 Finite differences progress:
  Degree of freedom:   1/ 10
  Displacement:        3/  4
  Total:               3/ 40
 bond charge predicted
       N       E                     dE             d eps       ncg     rms          rms(c)
DAV:   1    -0.177702531317E+02    0.14780E-01   -0.10094E+00 23168   0.193E+00    0.418E-01
DAV:   2    -0.177650643374E+02    0.51888E-02   -0.18203E-02 15232   0.406E-01    0.225E-01
DAV:   3    -0.177631588615E+02    0.19055E-02   -0.49585E-03 24960   0.149E-01    0.570E-02
DAV:   4    -0.177630834991E+02    0.75362E-04   -0.18552E-04 15616   0.403E-02    0.370E-02
DAV:   5    -0.177630719610E+02    0.11538E-04   -0.32326E-05 23712   0.126E-02    0.124E-02
DAV:   6    -0.177630719542E+02    0.67500E-08   -0.10136E-06 10464   0.298E-03
   5 F= -.17763072E+02 E0= -.17762956E+02  d E =-.231434E-03
 Finite differences progress:
  Degree of freedom:   1/ 10
  Displacement:        4/  4
  Total:               4/ 40
 bond charge predicted
       N       E                     dE             d eps       ncg     rms          rms(c)
DAV:   1    -0.178375595086E+02   -0.74488E-01   -0.38399E+00 23104   0.383E+00    0.133E+00
DAV:   2    -0.177828799706E+02    0.54680E-01   -0.12894E-01 15232   0.891E-01    0.669E-01
DAV:   3    -0.177671654834E+02    0.15714E-01   -0.45730E-02 23584   0.412E-01    0.211E-01
DAV:   4    -0.177659058470E+02    0.12596E-02   -0.26976E-03 16832   0.106E-01    0.107E-01
DAV:   5    -0.177656766037E+02    0.22924E-03   -0.48122E-04 22368   0.495E-02    0.597E-02
DAV:   6    -0.177656771434E+02   -0.53969E-06   -0.22942E-05 19040   0.112E-02
   6 F= -.17765677E+02 E0= -.17765586E+02  d E =-.183208E-03
 Finite differences progress:
  Degree of freedom:   2/ 10
  Displacement:        1/  4
  Total:               5/ 40
 bond charge predicted
       N       E                     dE             d eps       ncg     rms          rms(c)
DAV:   1    -0.177926714747E+02   -0.26995E-01   -0.81415E-01 23488   0.175E+00    0.401E-01
DAV:   2    -0.177875757622E+02    0.50957E-02   -0.16421E-02 14816   0.380E-01    0.218E-01
DAV:   3    -0.177857386849E+02    0.18371E-02   -0.55374E-03 25248   0.154E-01    0.626E-02
DAV:   4    -0.177856766577E+02    0.62027E-04   -0.18956E-04 14880   0.401E-02    0.413E-02
DAV:   5    -0.177856629452E+02    0.13713E-04   -0.37355E-05 23936   0.130E-02    0.128E-02
DAV:   6    -0.177856629863E+02   -0.41110E-07   -0.92143E-07 10080   0.307E-03
   7 F= -.17785663E+02 E0= -.17785558E+02  d E =-.210885E-03
 Finite differences progress:
  Degree of freedom:   2/ 10
  Displacement:        2/  4
  Total:               6/ 40
 bond charge predicted
       N       E                     dE             d eps       ncg     rms          rms(c)
DAV:   1    -0.178152950711E+02   -0.29632E-01   -0.13231E+00 23168   0.232E+00    0.845E-01
DAV:   2    -0.177924957961E+02    0.22799E-01   -0.44300E-02 15616   0.556E-01    0.432E-01
DAV:   3    -0.177852840477E+02    0.72117E-02   -0.19707E-02 24000   0.294E-01    0.125E-01
DAV:   4    -0.177849946767E+02    0.28937E-03   -0.76361E-04 16672   0.778E-02    0.776E-02
DAV:   5    -0.177849552025E+02    0.39474E-04   -0.10444E-04 23776   0.233E-02    0.227E-02
DAV:   6    -0.177849553435E+02   -0.14099E-06   -0.32175E-06 11616   0.522E-03
   8 F= -.17784955E+02 E0= -.17784797E+02  d E =-.316180E-03
 Finite differences progress:
  Degree of freedom:   2/ 10
  Displacement:        3/  4
  Total:               7/ 40
 bond charge predicted
       N       E                     dE             d eps       ncg     rms          rms(c)
DAV:   1    -0.177703710412E+02    0.14584E-01   -0.10046E+00 23584   0.192E+00    0.421E-01
DAV:   2    -0.177652072981E+02    0.51637E-02   -0.18361E-02 14816   0.414E-01    0.228E-01
DAV:   3    -0.177633293279E+02    0.18780E-02   -0.53130E-03 25184   0.153E-01    0.626E-02
DAV:   4    -0.177632462389E+02    0.83089E-04   -0.22362E-04 15424   0.415E-02    0.404E-02
DAV:   5    -0.177632301089E+02    0.16130E-04   -0.36454E-05 24064   0.139E-02    0.157E-02
DAV:   6    -0.177632301014E+02    0.74431E-08   -0.11641E-06 10688   0.328E-03
   9 F= -.17763230E+02 E0= -.17763085E+02  d E =-.290460E-03
 Finite differences progress:
  Degree of freedom:   2/ 10
  Displacement:        4/  4
  Total:               8/ 40
 bond charge predicted
       N       E                     dE             d eps       ncg     rms          rms(c)
DAV:   1    -0.178601769261E+02   -0.96947E-01   -0.31465E+00 10208   0.355E+00    0.140E+00
DAV:   2    -0.177907181045E+02    0.69459E-01   -0.16119E-01  7008   0.941E-01    0.681E-01
DAV:   3    -0.177716660925E+02    0.19052E-01   -0.53700E-02 10560   0.448E-01    0.233E-01
DAV:   4    -0.177689754533E+02    0.26906E-02   -0.45844E-03  7360   0.145E-01    0.108E-01
DAV:   5    -0.177680440380E+02    0.93142E-03   -0.16927E-03 10080   0.843E-02    0.732E-02
DAV:   6    -0.177679054321E+02    0.13861E-03   -0.23188E-04  8480   0.330E-02    0.952E-03
DAV:   7    -0.177678988842E+02    0.65479E-05   -0.77630E-06  8096   0.910E-03
  10 F= -.17767899E+02 E0= -.17767655E+02  d E =-.487609E-03
 Finite differences progress:
  Degree of freedom:   3/ 10
  Displacement:        1/  4
  Total:               9/ 40
 bond charge predicted
       N       E                     dE             d eps       ncg     rms          rms(c)
DAV:   1    -0.177913558726E+02   -0.23450E-01   -0.32138E-01  9792   0.114E+00    0.376E-01
DAV:   2    -0.177870676893E+02    0.42882E-02   -0.11784E-02  6880   0.266E-01    0.189E-01
DAV:   3    -0.177861432946E+02    0.92439E-03   -0.32909E-03 10272   0.112E-01    0.617E-02
DAV:   4    -0.177860862289E+02    0.57066E-04   -0.98599E-05  6912   0.268E-02    0.336E-02
DAV:   5    -0.177860786985E+02    0.75304E-05   -0.19553E-05  9696   0.116E-02
  11 F= -.17786079E+02 E0= -.17785931E+02  d E =-.295679E-03
 Finite differences progress:
  Degree of freedom:   3/ 10
  Displacement:        2/  4
  Total:              10/ 40
 bond charge predicted
       N       E                     dE             d eps       ncg     rms          rms(c)
DAV:   1    -0.178053687327E+02   -0.19283E-01   -0.13774E+00  9888   0.236E+00    0.768E-01
DAV:   2    -0.177874921112E+02    0.17877E-01   -0.48539E-02  7072   0.543E-01    0.386E-01
DAV:   3    -0.177835241293E+02    0.39680E-02   -0.17012E-02 10240   0.246E-01    0.129E-01
DAV:   4    -0.177833283033E+02    0.19583E-03   -0.49114E-04  6880   0.593E-02    0.725E-02
DAV:   5    -0.177832869630E+02    0.41340E-04   -0.84935E-05 10240   0.242E-02    0.256E-02
DAV:   6    -0.177832864197E+02    0.54327E-06   -0.29733E-06  4992   0.477E-03
  12 F= -.17783286E+02 E0= -.17783152E+02  d E =-.268498E-03
 Finite differences progress:
  Degree of freedom:   3/ 10
  Displacement:        3/  4
  Total:              11/ 40
 bond charge predicted
       N       E                     dE             d eps       ncg     rms          rms(c)
DAV:   1    -0.177614482343E+02    0.21839E-01   -0.35124E-01  9664   0.120E+00    0.411E-01
DAV:   2    -0.177562366572E+02    0.52116E-02   -0.13125E-02  7104   0.283E-01    0.210E-01
DAV:   3    -0.177549639846E+02    0.12727E-02   -0.51024E-03 10080   0.136E-01    0.679E-02
DAV:   4    -0.177549072939E+02    0.56691E-04   -0.15953E-04  7104   0.334E-02    0.372E-02
DAV:   5    -0.177548979143E+02    0.93797E-05   -0.26253E-05  9632   0.132E-02
  13 F= -.17754898E+02 E0= -.17754776E+02  d E =-.244064E-03
 Finite differences progress:
  Degree of freedom:   3/ 10
  Displacement:        4/  4
  Total:              12/ 40
 bond charge predicted
       N       E                     dE             d eps       ncg     rms          rms(c)
DAV:   1    -0.178236447053E+02   -0.68737E-01   -0.22801E+00 40448   0.299E+00    0.934E-01
DAV:   2    -0.177928599451E+02    0.30785E-01   -0.81080E-02 26080   0.751E-01    0.485E-01
DAV:   3    -0.177846835754E+02    0.81764E-02   -0.29181E-02 42112   0.337E-01    0.137E-01
DAV:   4    -0.177843247416E+02    0.35883E-03   -0.12088E-03 26016   0.945E-02    0.731E-02
DAV:   5    -0.177842826928E+02    0.42049E-04   -0.11139E-04 42976   0.280E-02    0.302E-02
DAV:   6    -0.177842821039E+02    0.58888E-06   -0.10148E-05 25792   0.831E-03
  14 F= -.17784282E+02 E0= -.17784146E+02  d E =-.272609E-03
 Finite differences progress:
  Degree of freedom:   4/ 10
  Displacement:        1/  4
  Total:              13/ 40
 bond charge predicted
       N       E                     dE             d eps       ncg     rms          rms(c)
DAV:   1    -0.177930056106E+02   -0.87229E-02   -0.80758E-01 41056   0.165E+00    0.249E-01
DAV:   2    -0.177911445159E+02    0.18611E-02   -0.99028E-03 24896   0.331E-01    0.130E-01
DAV:   3    -0.177902789366E+02    0.86558E-03   -0.27289E-03 44000   0.117E-01    0.202E-02
DAV:   4    -0.177902796848E+02   -0.74827E-06   -0.92829E-05 24800   0.355E-02    0.744E-03
DAV:   5    -0.177902797098E+02   -0.24906E-07   -0.29163E-06 34496   0.476E-03
  15 F= -.17790280E+02 E0= -.17790154E+02  d E =-.251511E-03
 Finite differences progress:
  Degree of freedom:   4/ 10
  Displacement:        2/  4
  Total:              14/ 40
 bond charge predicted
       N       E                     dE             d eps       ncg     rms          rms(c)
DAV:   1    -0.178034294243E+02   -0.13150E-01   -0.48944E-01 40320   0.129E+00    0.495E-01
DAV:   2    -0.177938721547E+02    0.95573E-02   -0.14870E-02 26688   0.338E-01    0.262E-01
DAV:   3    -0.177902832535E+02    0.35889E-02   -0.11410E-02 41760   0.234E-01    0.388E-02
DAV:   4    -0.177902804526E+02    0.28010E-05   -0.28109E-04 24800   0.616E-02    0.181E-02
DAV:   5    -0.177902795829E+02    0.86970E-06   -0.20380E-05 43200   0.115E-02
  16 F= -.17790280E+02 E0= -.17790154E+02  d E =-.251597E-03
 Finite differences progress:
  Degree of freedom:   4/ 10
  Displacement:        3/  4
  Total:              15/ 40
 bond charge predicted
       N       E                     dE             d eps       ncg     rms          rms(c)
DAV:   1    -0.177867576651E+02    0.35228E-02   -0.95637E-01 41280   0.181E+00    0.252E-01
DAV:   2    -0.177851934358E+02    0.15642E-02   -0.11580E-02 25120   0.363E-01    0.132E-01
DAV:   3    -0.177842824237E+02    0.91101E-03   -0.27868E-03 44672   0.118E-01    0.210E-02
DAV:   4    -0.177842835292E+02   -0.11055E-05   -0.80713E-05 24352   0.346E-02    0.108E-02
DAV:   5    -0.177842823941E+02    0.11352E-05   -0.77855E-06 36768   0.650E-03
  17 F= -.17784282E+02 E0= -.17784146E+02  d E =-.272533E-03
 Finite differences progress:
  Degree of freedom:   4/ 10
  Displacement:        4/  4
  Total:              16/ 40
 bond charge predicted
       N       E                     dE             d eps       ncg     rms          rms(c)
DAV:   1    -0.178136214247E+02   -0.29338E-01   -0.19504E+00 36480   0.272E+00    0.677E-01
DAV:   2    -0.177968369184E+02    0.16785E-01   -0.30636E-02 21664   0.552E-01    0.394E-01
DAV:   3    -0.177872842646E+02    0.95527E-02   -0.27304E-02 38080   0.342E-01    0.659E-02
DAV:   4    -0.177871278852E+02    0.15638E-03   -0.98346E-04 21856   0.994E-02    0.222E-02
DAV:   5    -0.177871547613E+02   -0.26876E-04   -0.16772E-04 38976   0.313E-02    0.421E-03
DAV:   6    -0.177871574944E+02   -0.27330E-05   -0.72271E-06 19456   0.948E-03
  18 F= -.17787157E+02 E0= -.17787083E+02  d E =-.148280E-03
 Finite differences progress:
  Degree of freedom:   5/ 10
  Displacement:        1/  4
  Total:              17/ 40
 bond charge predicted
       N       E                     dE             d eps       ncg     rms          rms(c)
DAV:   1    -0.177944595572E+02   -0.73048E-02   -0.96712E-01 38368   0.176E+00    0.291E-01
DAV:   2    -0.177921531757E+02    0.23064E-02   -0.10307E-02 21152   0.331E-01    0.153E-01
DAV:   3    -0.177910479524E+02    0.11052E-02   -0.32785E-03 38144   0.113E-01    0.207E-02
DAV:   4    -0.177910532031E+02   -0.52507E-05   -0.63872E-05 21376   0.295E-02    0.784E-03
DAV:   5    -0.177910532992E+02   -0.96062E-07   -0.14427E-06 32640   0.306E-03
  19 F= -.17791053E+02 E0= -.17790934E+02  d E =-.238309E-03
 Finite differences progress:
  Degree of freedom:   5/ 10
  Displacement:        2/  4
  Total:              18/ 40
 bond charge predicted
       N       E                     dE             d eps       ncg     rms          rms(c)
DAV:   1    -0.178066709216E+02   -0.15618E-01   -0.65683E-01 36672   0.145E+00    0.567E-01
DAV:   2    -0.177955606674E+02    0.11110E-01   -0.14608E-02 22304   0.327E-01    0.308E-01
DAV:   3    -0.177910416483E+02    0.45190E-02   -0.14139E-02 36608   0.233E-01    0.399E-02
DAV:   4    -0.177910528535E+02   -0.11205E-04   -0.24898E-04 21344   0.561E-02    0.203E-02
DAV:   5    -0.177910533266E+02   -0.47310E-06   -0.48044E-06 36384   0.709E-03
  20 F= -.17791053E+02 E0= -.17790934E+02  d E =-.238512E-03
 Finite differences progress:
  Degree of freedom:   5/ 10
  Displacement:        3/  4
  Total:              19/ 40
 bond charge predicted
       N       E                     dE             d eps       ncg     rms          rms(c)
DAV:   1    -0.177902920320E+02    0.76082E-03   -0.11535E+00 37856   0.194E+00    0.283E-01
DAV:   2    -0.177883273585E+02    0.19647E-02   -0.11420E-02 21632   0.358E-01    0.156E-01
DAV:   3    -0.177871588730E+02    0.11685E-02   -0.37777E-03 39104   0.122E-01    0.199E-02
DAV:   4    -0.177871618594E+02   -0.29864E-05   -0.62976E-05 21024   0.301E-02    0.151E-02
DAV:   5    -0.177871608528E+02    0.10065E-05   -0.45614E-06 33120   0.529E-03
  21 F= -.17787161E+02 E0= -.17787087E+02  d E =-.148319E-03
 Finite differences progress:
  Degree of freedom:   5/ 10
  Displacement:        4/  4
  Total:              20/ 40
 bond charge predicted
       N       E                     dE             d eps       ncg     rms          rms(c)
DAV:   1    -0.178129021526E+02   -0.25740E-01   -0.21432E+00 37600   0.266E+00    0.711E-01
DAV:   2    -0.177958007250E+02    0.17101E-01   -0.31064E-02 21792   0.539E-01    0.419E-01
DAV:   3    -0.177868789559E+02    0.89218E-02   -0.28584E-02 37280   0.337E-01    0.679E-02
DAV:   4    -0.177870366757E+02   -0.15772E-03   -0.10546E-03 22976   0.945E-02    0.174E-02
DAV:   5    -0.177871996197E+02   -0.16294E-03   -0.87833E-05 38976   0.222E-02    0.377E-03
DAV:   6    -0.177872212562E+02   -0.21636E-04   -0.28017E-06 17632   0.516E-03    0.124E-03
DAV:   7    -0.177872270267E+02   -0.57705E-05   -0.14350E-07 15968   0.108E-03
  22 F= -.17787227E+02 E0= -.17787168E+02  d E =-.118100E-03
 Finite differences progress:
  Degree of freedom:   6/ 10
  Displacement:        1/  4
  Total:              21/ 40
 bond charge predicted
       N       E                     dE             d eps       ncg     rms          rms(c)
DAV:   1    -0.177945075798E+02   -0.72863E-02   -0.88420E-01 38112   0.168E+00    0.291E-01
DAV:   2    -0.177921556406E+02    0.23519E-02   -0.97620E-03 21120   0.321E-01    0.154E-01
DAV:   3    -0.177910420483E+02    0.11136E-02   -0.33570E-03 38368   0.114E-01    0.206E-02
DAV:   4    -0.177910469336E+02   -0.48853E-05   -0.64335E-05 21632   0.293E-02    0.452E-03
DAV:   5    -0.177910470430E+02   -0.10944E-06   -0.60951E-07 31552   0.221E-03
  23 F= -.17791047E+02 E0= -.17790926E+02  d E =-.242577E-03
 Finite differences progress:
  Degree of freedom:   6/ 10
  Displacement:        2/  4
  Total:              22/ 40
 bond charge predicted
       N       E                     dE             d eps       ncg     rms          rms(c)
DAV:   1    -0.178065811472E+02   -0.15534E-01   -0.71223E-01 36640   0.151E+00    0.566E-01
DAV:   2    -0.177955358681E+02    0.11045E-01   -0.15155E-02 22624   0.337E-01    0.308E-01
DAV:   3    -0.177910360891E+02    0.44998E-02   -0.14111E-02 36096   0.232E-01    0.401E-02
DAV:   4    -0.177910466864E+02   -0.10597E-04   -0.24476E-04 22144   0.551E-02    0.214E-02
DAV:   5    -0.177910470649E+02   -0.37857E-06   -0.49816E-06 36864   0.720E-03
  24 F= -.17791047E+02 E0= -.17790926E+02  d E =-.242604E-03
 Finite differences progress:
  Degree of freedom:   6/ 10
  Displacement:        3/  4
  Total:              23/ 40
 bond charge predicted
       N       E                     dE             d eps       ncg     rms          rms(c)
DAV:   1    -0.177904704733E+02    0.57621E-03   -0.10468E+00 38176   0.184E+00    0.284E-01
DAV:   2    -0.177883924147E+02    0.20781E-02   -0.10482E-02 21120   0.342E-01    0.156E-01
DAV:   3    -0.177872270240E+02    0.11654E-02   -0.37268E-03 39008   0.121E-01    0.197E-02
DAV:   4    -0.177872302756E+02   -0.32515E-05   -0.62516E-05 21056   0.297E-02    0.152E-02
DAV:   5    -0.177872292364E+02    0.10392E-05   -0.46068E-06 34016   0.531E-03
  25 F= -.17787229E+02 E0= -.17787170E+02  d E =-.118101E-03
 Finite differences progress:
  Degree of freedom:   6/ 10
  Displacement:        4/  4
  Total:              24/ 40
 bond charge predicted
       N       E                     dE             d eps       ncg     rms          rms(c)
DAV:   1    -0.178063366236E+02   -0.19106E-01   -0.10440E+00 37632   0.205E+00    0.444E-01
DAV:   2    -0.177979664590E+02    0.83702E-02   -0.14035E-02 21248   0.385E-01    0.286E-01
DAV:   3    -0.177907868255E+02    0.71796E-02   -0.18866E-02 37024   0.266E-01    0.211E-02
DAV:   4    -0.177907950688E+02   -0.82433E-05   -0.33197E-04 22400   0.642E-02    0.962E-03
DAV:   5    -0.177907930754E+02    0.19934E-05   -0.10908E-05 38752   0.780E-03
  26 F= -.17790793E+02 E0= -.17790622E+02  d E =-.341863E-03
 Finite differences progress:
  Degree of freedom:   7/ 10
  Displacement:        1/  4
  Total:              25/ 40
 bond charge predicted
       N       E                     dE             d eps       ncg     rms          rms(c)
DAV:   1    -0.177918814044E+02   -0.10863E-02   -0.10860E-01 20672   0.830E-01    0.383E-02
DAV:   2    -0.177919621147E+02   -0.80710E-04   -0.97595E-04 38656   0.104E-01    0.201E-02
DAV:   3    -0.177919607292E+02    0.13855E-05   -0.18752E-05 22976   0.950E-03    0.666E-03
DAV:   4    -0.177919615452E+02   -0.81602E-06   -0.19624E-06 35648   0.402E-03    0.198E-03
DAV:   5    -0.177919616050E+02   -0.59820E-07   -0.21760E-07 16640   0.130E-03
  27 F= -.17791962E+02 E0= -.17791790E+02  d E =-.343295E-03
 Finite differences progress:
  Degree of freedom:   7/ 10
  Displacement:        2/  4
  Total:              26/ 40
 bond charge predicted
       N       E                     dE             d eps       ncg     rms          rms(c)
DAV:   1    -0.177919683598E+02   -0.68146E-05   -0.60539E-02 20928   0.619E-01    0.711E-02
DAV:   2    -0.177919656284E+02    0.27314E-05   -0.61970E-04 38464   0.802E-02    0.414E-02
DAV:   3    -0.177919586655E+02    0.69629E-05   -0.98576E-05 22848   0.210E-02    0.105E-02
DAV:   4    -0.177919612782E+02   -0.26127E-05   -0.46151E-06 35456   0.721E-03    0.396E-03
DAV:   5    -0.177919616151E+02   -0.33690E-06   -0.76241E-07 15200   0.248E-03
  28 F= -.17791962E+02 E0= -.17791790E+02  d E =-.343309E-03
 Finite differences progress:
  Degree of freedom:   7/ 10
  Displacement:        3/  4
  Total:              27/ 40
 bond charge predicted
       N       E                     dE             d eps       ncg     rms          rms(c)
DAV:   1    -0.177907100797E+02    0.12512E-02   -0.11442E-01 21184   0.842E-01    0.458E-02
DAV:   2    -0.177907940554E+02   -0.83976E-04   -0.98492E-04 37984   0.104E-01    0.248E-02
DAV:   3    -0.177907920153E+02    0.20401E-05   -0.91947E-06 23520   0.704E-03    0.142E-02
DAV:   4    -0.177907928746E+02   -0.85933E-06   -0.80397E-06 34624   0.637E-03    0.224E-03
DAV:   5    -0.177907929890E+02   -0.11433E-06   -0.38575E-07 17536   0.202E-03
  29 F= -.17790793E+02 E0= -.17790622E+02  d E =-.341860E-03
 Finite differences progress:
  Degree of freedom:   7/ 10
  Displacement:        4/  4
  Total:              28/ 40
 bond charge predicted
       N       E                     dE             d eps       ncg     rms          rms(c)
DAV:   1    -0.177885976389E+02    0.21952E-02   -0.21407E-01  8544   0.123E+00    0.102E-01
DAV:   2    -0.177886251882E+02   -0.27549E-04   -0.26900E-03 15424   0.174E-01    0.632E-02
DAV:   3    -0.177885651619E+02    0.60026E-04   -0.19581E-04  9888   0.371E-02    0.256E-02
DAV:   4    -0.177885493849E+02    0.15777E-04   -0.47057E-05 13856   0.186E-02    0.494E-03
DAV:   5    -0.177885470877E+02    0.22972E-05   -0.34708E-06  8352   0.519E-03
  30 F= -.17788547E+02 E0= -.17788371E+02  d E =-.352421E-03
 Finite differences progress:
  Degree of freedom:   8/ 10
  Displacement:        1/  4
  Total:              29/ 40
 bond charge predicted
       N       E                     dE             d eps       ncg     rms          rms(c)
DAV:   1    -0.177913293044E+02   -0.27799E-02   -0.75277E-02  8640   0.653E-01    0.388E-02
DAV:   2    -0.177914042496E+02   -0.74945E-04   -0.12058E-03 15264   0.101E-01    0.246E-02
DAV:   3    -0.177913990336E+02    0.52160E-05   -0.43994E-05 10464   0.177E-02    0.922E-03
DAV:   4    -0.177913995670E+02   -0.53338E-06   -0.48766E-06 11040   0.755E-03    0.271E-03
DAV:   5    -0.177913996384E+02   -0.71386E-07   -0.27887E-07  7424   0.148E-03
  31 F= -.17791400E+02 E0= -.17791227E+02  d E =-.345969E-03
 Finite differences progress:
  Degree of freedom:   8/ 10
  Displacement:        2/  4
  Total:              30/ 40
 bond charge predicted
       N       E                     dE             d eps       ncg     rms          rms(c)
DAV:   1    -0.177914825529E+02   -0.82986E-04   -0.90761E-02  8576   0.802E-01    0.747E-02
DAV:   2    -0.177914183917E+02    0.64161E-04   -0.11881E-03 14816   0.112E-01    0.479E-02
DAV:   3    -0.177913971648E+02    0.21227E-04   -0.15990E-04 10624   0.337E-02    0.187E-02
DAV:   4    -0.177913992752E+02   -0.21103E-05   -0.18053E-05 12768   0.143E-02    0.451E-03
DAV:   5    -0.177913995782E+02   -0.30300E-06   -0.87598E-07  7232   0.274E-03
  32 F= -.17791400E+02 E0= -.17791227E+02  d E =-.345956E-03
 Finite differences progress:
  Degree of freedom:   8/ 10
  Displacement:        3/  4
  Total:              31/ 40
 bond charge predicted
       N       E                     dE             d eps       ncg     rms          rms(c)
DAV:   1    -0.177884853142E+02    0.29140E-02   -0.70972E-02  8896   0.642E-01    0.430E-02
DAV:   2    -0.177885510783E+02   -0.65764E-04   -0.11179E-03 15072   0.972E-02    0.265E-02
DAV:   3    -0.177885466416E+02    0.44366E-05   -0.27149E-05 10240   0.152E-02    0.130E-02
DAV:   4    -0.177885465578E+02    0.83861E-07   -0.76025E-06 13248   0.747E-03    0.277E-03
DAV:   5    -0.177885467098E+02   -0.15206E-06   -0.50438E-07  6464   0.247E-03
  33 F= -.17788547E+02 E0= -.17788371E+02  d E =-.352415E-03
 Finite differences progress:
  Degree of freedom:   8/ 10
  Displacement:        4/  4
  Total:              32/ 40
 bond charge predicted
       N       E                     dE             d eps       ncg     rms          rms(c)
DAV:   1    -0.177895977086E+02   -0.10512E-02   -0.63053E-01 24736   0.180E+00    0.143E-01
DAV:   2    -0.177900085014E+02   -0.41079E-03   -0.79174E-03 44096   0.315E-01    0.780E-02
DAV:   3    -0.177899137123E+02    0.94789E-04   -0.39048E-04 28992   0.475E-02    0.213E-02
DAV:   4    -0.177899126666E+02    0.10458E-05   -0.30979E-05 36512   0.188E-02    0.719E-03
DAV:   5    -0.177899122977E+02    0.36881E-06   -0.29268E-06 28448   0.415E-03
  34 F= -.17789912E+02 E0= -.17789770E+02  d E =-.284284E-03
 Finite differences progress:
  Degree of freedom:   9/ 10
  Displacement:        1/  4
  Total:              33/ 40
 bond charge predicted
       N       E                     dE             d eps       ncg     rms          rms(c)
DAV:   1    -0.177913642333E+02   -0.14516E-02   -0.58111E-01 23872   0.158E+00    0.535E-02
DAV:   2    -0.177917605468E+02   -0.39631E-03   -0.44802E-03 44608   0.239E-01    0.343E-02
DAV:   3    -0.177917416810E+02    0.18866E-04   -0.50085E-05 26336   0.149E-02    0.545E-03
DAV:   4    -0.177917416213E+02    0.59647E-07   -0.12519E-06 39104   0.431E-03    0.203E-03
DAV:   5    -0.177917415776E+02    0.43741E-07   -0.31910E-07 20768   0.130E-03
  35 F= -.17791742E+02 E0= -.17791576E+02  d E =-.330187E-03
 Finite differences progress:
  Degree of freedom:   9/ 10
  Displacement:        2/  4
  Total:              34/ 40
 bond charge predicted
       N       E                     dE             d eps       ncg     rms          rms(c)
DAV:   1    -0.177918035769E+02   -0.61956E-04   -0.26376E-01 25568   0.103E+00    0.117E-01
DAV:   2    -0.177918084674E+02   -0.48905E-05   -0.21843E-03 42176   0.158E-01    0.633E-02
DAV:   3    -0.177917417408E+02    0.66727E-04   -0.22374E-04 28928   0.310E-02    0.112E-02
DAV:   4    -0.177917417473E+02   -0.64723E-08   -0.47562E-06 36256   0.856E-03    0.381E-03
DAV:   5    -0.177917415659E+02    0.18132E-06   -0.15470E-06 18880   0.275E-03
  36 F= -.17791742E+02 E0= -.17791576E+02  d E =-.330183E-03
 Finite differences progress:
  Degree of freedom:   9/ 10
  Displacement:        3/  4
  Total:              35/ 40
 bond charge predicted
       N       E                     dE             d eps       ncg     rms          rms(c)
DAV:   1    -0.177895276490E+02    0.22141E-02   -0.60849E-01 24352   0.160E+00    0.668E-02
DAV:   2    -0.177899275383E+02   -0.39989E-03   -0.45752E-03 43712   0.238E-01    0.303E-02
DAV:   3    -0.177899126087E+02    0.14930E-04   -0.40152E-05 27168   0.136E-02    0.103E-02
DAV:   4    -0.177899123760E+02    0.23271E-06   -0.38801E-06 39488   0.572E-03    0.267E-03
DAV:   5    -0.177899123171E+02    0.58968E-07   -0.61091E-07 19392   0.189E-03
  37 F= -.17789912E+02 E0= -.17789770E+02  d E =-.284251E-03
 Finite differences progress:
  Degree of freedom:   9/ 10
  Displacement:        4/  4
  Total:              36/ 40
 bond charge predicted
       N       E                     dE             d eps       ncg     rms          rms(c)
DAV:   1    -0.177901010174E+02   -0.18864E-03   -0.10336E+00  8512   0.219E+00    0.157E-01
DAV:   2    -0.177902287477E+02   -0.12773E-03   -0.10752E-02 15520   0.345E-01    0.826E-02
DAV:   3    -0.177901053580E+02    0.12339E-03   -0.27798E-04  9376   0.393E-02    0.374E-02
DAV:   4    -0.177900652166E+02    0.40141E-04   -0.10097E-04 14624   0.224E-02    0.600E-03
DAV:   5    -0.177900531873E+02    0.12029E-04   -0.52746E-06  8416   0.655E-03    0.256E-03
DAV:   6    -0.177900443548E+02    0.88325E-05   -0.14403E-06  8000   0.277E-03
  38 F= -.17790044E+02 E0= -.17789888E+02  d E =-.313152E-03
 Finite differences progress:
  Degree of freedom:  10/ 10
  Displacement:        1/  4
  Total:              37/ 40
 bond charge predicted
       N       E                     dE             d eps       ncg     rms          rms(c)
DAV:   1    -0.177916406592E+02   -0.15875E-02   -0.26633E-01  8512   0.104E+00    0.591E-02
DAV:   2    -0.177917872277E+02   -0.14657E-03   -0.34799E-03 13952   0.173E-01    0.269E-02
DAV:   3    -0.177917749190E+02    0.12309E-04   -0.44694E-05 10464   0.172E-02    0.123E-02
DAV:   4    -0.177917732189E+02    0.17001E-05   -0.84830E-06 12960   0.666E-03    0.240E-03
DAV:   5    -0.177917730914E+02    0.12756E-06   -0.29551E-07  5856   0.174E-03
  39 F= -.17791773E+02 E0= -.17791605E+02  d E =-.335805E-03
 Finite differences progress:
  Degree of freedom:  10/ 10
  Displacement:        2/  4
  Total:              38/ 40
 bond charge predicted
       N       E                     dE             d eps       ncg     rms          rms(c)
DAV:   1    -0.177920467253E+02   -0.27351E-03   -0.45623E-01  8512   0.142E+00    0.119E-01
DAV:   2    -0.177918219562E+02    0.22477E-03   -0.58359E-03 13536   0.229E-01    0.533E-02
DAV:   3    -0.177917763890E+02    0.45567E-04   -0.17861E-04 10528   0.334E-02    0.241E-02
DAV:   4    -0.177917728874E+02    0.35016E-05   -0.33315E-05 13664   0.135E-02    0.476E-03
DAV:   5    -0.177917729407E+02   -0.53330E-07   -0.10548E-06  6880   0.326E-03
  40 F= -.17791773E+02 E0= -.17791605E+02  d E =-.335805E-03
 Finite differences progress:
  Degree of freedom:  10/ 10
  Displacement:        3/  4
  Total:              39/ 40
 bond charge predicted
       N       E                     dE             d eps       ncg     rms          rms(c)
DAV:   1    -0.177898862330E+02    0.18867E-02   -0.28055E-01  8512   0.106E+00    0.620E-02
DAV:   2    -0.177900498573E+02   -0.16362E-03   -0.36827E-03 13984   0.177E-01    0.268E-02
DAV:   3    -0.177900394527E+02    0.10405E-04   -0.44170E-05 10528   0.168E-02    0.125E-02
DAV:   4    -0.177900386361E+02    0.81656E-06   -0.80712E-06 12960   0.663E-03    0.249E-03
DAV:   5    -0.177900386811E+02   -0.44965E-07   -0.19215E-07  6016   0.151E-03
  41 F= -.17790039E+02 E0= -.17789882E+02  d E =-.313206E-03
 Finite differences progress:
  Degree of freedom:  10/ 10
  Displacement:        4/  4
  Total:              40/ 40
