<?xml version="1.0" encoding="ISO-8859-1"?>
<modeling>
 <generator>
  <i name="program" type="string">vasp </i>
  <i name="version" type="string">5.4.4.18Apr17-6-g9f103f2a35  </i>
  <i name="subversion" type="string">(build Nov 08 2019 15:50:39) complex            parallel </i>
  <i name="platform" type="string">LinuxIFC </i>
  <i name="date" type="string">2019 11 20 </i>
  <i name="time" type="string">11:16:05 </i>
 </generator>
 <incar>
  <i type="string" name="SYSTEM"> Al2As2</i>
  <i type="int" name="ISTART">     0</i>
  <i type="string" name="PREC">accurate</i>
  <i type="string" name="ALGO"> Normal</i>
  <i type="int" name="ICHARG">     2</i>
  <i type="int" name="NELM">  1000</i>
  <i type="int" name="NELMIN">     5</i>
  <i type="int" name="IBRION">     6</i>
  <i type="int" name="NFREE">     4</i>
  <i name="EDIFF">      0.00001000</i>
  <i name="EDIFFG">     -0.01000000</i>
  <i type="int" name="NSW">  1000</i>
  <i type="int" name="ISIF">     3</i>
  <i name="ENCUT">    500.00000000</i>
  <i name="POTIM">      0.01500000</i>
  <i type="int" name="ISMEAR">     0</i>
  <i name="SIGMA">      0.02000000</i>
  <i type="logical" name="LWAVE"> F  </i>
  <i type="logical" name="LCHARG"> F  </i>
  <v type="int" name="KPOINT_BSE">    -1     0     0     0</v>
  <i type="int" name="NELM">  1000</i>
  <i type="string" name="GGA"> PE</i>
 </incar>
 <structure name="primitive_cell" >
  <crystal>
   <varray name="basis" >
    <v>       3.79777062       0.00000000       0.00000000 </v>
    <v>      -1.89888531       3.28896583       0.00000000 </v>
    <v>       0.00000000       0.00000000       5.95456429 </v>
   </varray>
   <i name="volume">     74.37690135 </i>
   <varray name="rec_basis" >
    <v>       0.26331237       0.15202347       0.00000000 </v>
    <v>       0.00000000       0.30404694       0.00000000 </v>
    <v>       0.00000000       0.00000000       0.16793840 </v>
   </varray>
  </crystal>
  <varray name="positions" >
   <v>       0.00000000       0.00000000       0.00000000 </v>
   <v>      -0.33333337       0.33333331      -0.25000000 </v>
   <v>       0.33333334      -0.33333331       0.25000000 </v>
   <v>       0.00000000       0.00000000      -0.50000000 </v>
  </varray>
 </structure>
 <varray name="primitive_index" >
  <v type="int" >        1 </v>
  <v type="int" >        4 </v>
  <v type="int" >        3 </v>
  <v type="int" >        2 </v>
 </varray>
 <kpoints>
  <generation param="Gamma">
   <v type="int" name="divisions">      12       12        8 </v>
   <v name="usershift">      0.00000000       0.00000000       0.00000000 </v>
   <v name="genvec1">      0.08333333       0.00000000       0.00000000 </v>
   <v name="genvec2">      0.00000000       0.08333333       0.00000000 </v>
   <v name="genvec3">      0.00000000       0.00000000       0.12500000 </v>
   <v name="shift">      0.00000000       0.00000000       0.00000000 </v>
  </generation>
  <varray name="kpointlist" >
   <v>       0.00000000       0.00000000       0.00000000 </v>
   <v>       0.08333333      -0.00000000       0.00000000 </v>
   <v>       0.16666667      -0.00000000       0.00000000 </v>
   <v>       0.25000000       0.00000000       0.00000000 </v>
   <v>       0.33333333       0.00000000       0.00000000 </v>
   <v>       0.41666667       0.00000000       0.00000000 </v>
   <v>       0.50000000       0.00000000       0.00000000 </v>
   <v>       0.08333333       0.08333333       0.00000000 </v>
   <v>       0.16666667       0.08333333       0.00000000 </v>
   <v>       0.25000000       0.08333333       0.00000000 </v>
   <v>       0.33333333       0.08333333       0.00000000 </v>
   <v>       0.41666667       0.08333333       0.00000000 </v>
   <v>       0.16666667       0.16666667       0.00000000 </v>
   <v>       0.25000000       0.16666667       0.00000000 </v>
   <v>       0.33333333       0.16666667       0.00000000 </v>
   <v>       0.41666667       0.16666667       0.00000000 </v>
   <v>       0.25000000       0.25000000       0.00000000 </v>
   <v>       0.33333333       0.25000000       0.00000000 </v>
   <v>       0.33333333       0.33333333       0.00000000 </v>
   <v>       0.00000000       0.00000000       0.12500000 </v>
   <v>       0.08333333      -0.00000000       0.12500000 </v>
   <v>       0.16666667      -0.00000000       0.12500000 </v>
   <v>       0.25000000       0.00000000       0.12500000 </v>
   <v>       0.33333333       0.00000000       0.12500000 </v>
   <v>       0.41666667       0.00000000       0.12500000 </v>
   <v>       0.50000000       0.00000000       0.12500000 </v>
   <v>       0.08333333       0.08333333       0.12500000 </v>
   <v>       0.16666667       0.08333333       0.12500000 </v>
   <v>       0.25000000       0.08333333       0.12500000 </v>
   <v>       0.33333333       0.08333333       0.12500000 </v>
   <v>       0.41666667       0.08333333       0.12500000 </v>
   <v>       0.16666667       0.16666667       0.12500000 </v>
   <v>       0.25000000       0.16666667       0.12500000 </v>
   <v>       0.33333333       0.16666667       0.12500000 </v>
   <v>       0.41666667       0.16666667       0.12500000 </v>
   <v>       0.25000000       0.25000000       0.12500000 </v>
   <v>       0.33333333       0.25000000       0.12500000 </v>
   <v>       0.33333333       0.33333333       0.12500000 </v>
   <v>       0.00000000       0.00000000       0.25000000 </v>
   <v>       0.08333333      -0.00000000       0.25000000 </v>
   <v>       0.16666667      -0.00000000       0.25000000 </v>
   <v>       0.25000000       0.00000000       0.25000000 </v>
   <v>       0.33333333       0.00000000       0.25000000 </v>
   <v>       0.41666667       0.00000000       0.25000000 </v>
   <v>       0.50000000       0.00000000       0.25000000 </v>
   <v>       0.08333333       0.08333333       0.25000000 </v>
   <v>       0.16666667       0.08333333       0.25000000 </v>
   <v>       0.25000000       0.08333333       0.25000000 </v>
   <v>       0.33333333       0.08333333       0.25000000 </v>
   <v>       0.41666667       0.08333333       0.25000000 </v>
   <v>       0.16666667       0.16666667       0.25000000 </v>
   <v>       0.25000000       0.16666667       0.25000000 </v>
   <v>       0.33333333       0.16666667       0.25000000 </v>
   <v>       0.41666667       0.16666667       0.25000000 </v>
   <v>       0.25000000       0.25000000       0.25000000 </v>
   <v>       0.33333333       0.25000000       0.25000000 </v>
   <v>       0.33333333       0.33333333       0.25000000 </v>
   <v>       0.00000000       0.00000000       0.37500000 </v>
   <v>       0.08333333      -0.00000000       0.37500000 </v>
   <v>       0.16666667      -0.00000000       0.37500000 </v>
   <v>       0.25000000       0.00000000       0.37500000 </v>
   <v>       0.33333333       0.00000000       0.37500000 </v>
   <v>       0.41666667       0.00000000       0.37500000 </v>
   <v>       0.50000000       0.00000000       0.37500000 </v>
   <v>       0.08333333       0.08333333       0.37500000 </v>
   <v>       0.16666667       0.08333333       0.37500000 </v>
   <v>       0.25000000       0.08333333       0.37500000 </v>
   <v>       0.33333333       0.08333333       0.37500000 </v>
   <v>       0.41666667       0.08333333       0.37500000 </v>
   <v>       0.16666667       0.16666667       0.37500000 </v>
   <v>       0.25000000       0.16666667       0.37500000 </v>
   <v>       0.33333333       0.16666667       0.37500000 </v>
   <v>       0.41666667       0.16666667       0.37500000 </v>
   <v>       0.25000000       0.25000000       0.37500000 </v>
   <v>       0.33333333       0.25000000       0.37500000 </v>
   <v>       0.33333333       0.33333333       0.37500000 </v>
   <v>       0.00000000       0.00000000       0.50000000 </v>
   <v>       0.08333333      -0.00000000       0.50000000 </v>
   <v>       0.16666667      -0.00000000       0.50000000 </v>
   <v>       0.25000000       0.00000000       0.50000000 </v>
   <v>       0.33333333       0.00000000       0.50000000 </v>
   <v>       0.41666667       0.00000000       0.50000000 </v>
   <v>       0.50000000       0.00000000       0.50000000 </v>
   <v>       0.08333333       0.08333333       0.50000000 </v>
   <v>       0.16666667       0.08333333       0.50000000 </v>
   <v>       0.25000000       0.08333333       0.50000000 </v>
   <v>       0.33333333       0.08333333       0.50000000 </v>
   <v>       0.41666667       0.08333333       0.50000000 </v>
   <v>       0.16666667       0.16666667       0.50000000 </v>
   <v>       0.25000000       0.16666667       0.50000000 </v>
   <v>       0.33333333       0.16666667       0.50000000 </v>
   <v>       0.41666667       0.16666667       0.50000000 </v>
   <v>       0.25000000       0.25000000       0.50000000 </v>
   <v>       0.33333333       0.25000000       0.50000000 </v>
   <v>       0.33333333       0.33333333       0.50000000 </v>
  </varray>
  <varray name="weights" >
   <v>       0.00086806 </v>
   <v>       0.00520833 </v>
   <v>       0.00520833 </v>
   <v>       0.00520833 </v>
   <v>       0.00520833 </v>
   <v>       0.00520833 </v>
   <v>       0.00260417 </v>
   <v>       0.00520833 </v>
   <v>       0.01041667 </v>
   <v>       0.01041667 </v>
   <v>       0.01041667 </v>
   <v>       0.01041667 </v>
   <v>       0.00520833 </v>
   <v>       0.01041667 </v>
   <v>       0.01041667 </v>
   <v>       0.00520833 </v>
   <v>       0.00520833 </v>
   <v>       0.01041667 </v>
   <v>       0.00173611 </v>
   <v>       0.00173611 </v>
   <v>       0.01041667 </v>
   <v>       0.01041667 </v>
   <v>       0.01041667 </v>
   <v>       0.01041667 </v>
   <v>       0.01041667 </v>
   <v>       0.00520833 </v>
   <v>       0.01041667 </v>
   <v>       0.02083333 </v>
   <v>       0.02083333 </v>
   <v>       0.02083333 </v>
   <v>       0.02083333 </v>
   <v>       0.01041667 </v>
   <v>       0.02083333 </v>
   <v>       0.02083333 </v>
   <v>       0.01041667 </v>
   <v>       0.01041667 </v>
   <v>       0.02083333 </v>
   <v>       0.00347222 </v>
   <v>       0.00173611 </v>
   <v>       0.01041667 </v>
   <v>       0.01041667 </v>
   <v>       0.01041667 </v>
   <v>       0.01041667 </v>
   <v>       0.01041667 </v>
   <v>       0.00520833 </v>
   <v>       0.01041667 </v>
   <v>       0.02083333 </v>
   <v>       0.02083333 </v>
   <v>       0.02083333 </v>
   <v>       0.02083333 </v>
   <v>       0.01041667 </v>
   <v>       0.02083333 </v>
   <v>       0.02083333 </v>
   <v>       0.01041667 </v>
   <v>       0.01041667 </v>
   <v>       0.02083333 </v>
   <v>       0.00347222 </v>
   <v>       0.00173611 </v>
   <v>       0.01041667 </v>
   <v>       0.01041667 </v>
   <v>       0.01041667 </v>
   <v>       0.01041667 </v>
   <v>       0.01041667 </v>
   <v>       0.00520833 </v>
   <v>       0.01041667 </v>
   <v>       0.02083333 </v>
   <v>       0.02083333 </v>
   <v>       0.02083333 </v>
   <v>       0.02083333 </v>
   <v>       0.01041667 </v>
   <v>       0.02083333 </v>
   <v>       0.02083333 </v>
   <v>       0.01041667 </v>
   <v>       0.01041667 </v>
   <v>       0.02083333 </v>
   <v>       0.00347222 </v>
   <v>       0.00086806 </v>
   <v>       0.00520833 </v>
   <v>       0.00520833 </v>
   <v>       0.00520833 </v>
   <v>       0.00520833 </v>
   <v>       0.00520833 </v>
   <v>       0.00260417 </v>
   <v>       0.00520833 </v>
   <v>       0.01041667 </v>
   <v>       0.01041667 </v>
   <v>       0.01041667 </v>
   <v>       0.01041667 </v>
   <v>       0.00520833 </v>
   <v>       0.01041667 </v>
   <v>       0.01041667 </v>
   <v>       0.00520833 </v>
   <v>       0.00520833 </v>
   <v>       0.01041667 </v>
   <v>       0.00173611 </v>
  </varray>
 </kpoints>
 <parameters>
  <separator name="general" >
   <i type="string" name="SYSTEM">Al2As2</i>
   <i type="logical" name="LCOMPAT"> F  </i>
  </separator>
  <separator name="electronic" >
   <i type="string" name="PREC">accura</i>
   <i name="ENMAX">    500.00000000</i>
   <i name="ENAUG">    462.75800000</i>
   <i name="EDIFF">      0.00001000</i>
   <i type="int" name="IALGO">    38</i>
   <i type="int" name="IWAVPR">    11</i>
   <i type="int" name="NBANDS">    32</i>
   <i name="NELECT">     16.00000000</i>
   <i type="int" name="TURBO">     0</i>
   <i type="int" name="IRESTART">     0</i>
   <i type="int" name="NREBOOT">     0</i>
   <i type="int" name="NMIN">     0</i>
   <i name="EREF">      0.00000000</i>
   <separator name="electronic smearing" >
    <i type="int" name="ISMEAR">     0</i>
    <i name="SIGMA">      0.02000000</i>
    <i name="KSPACING">      0.50000000</i>
    <i type="logical" name="KGAMMA"> T  </i>
   </separator>
   <separator name="electronic projectors" >
    <i type="logical" name="LREAL"> F  </i>
    <v name="ROPT">      0.00000000      0.00000000</v>
    <i type="int" name="LMAXPAW">  -100</i>
    <i type="int" name="LMAXMIX">     2</i>
    <i type="logical" name="NLSPLINE"> F  </i>
   </separator>
   <separator name="electronic startup" >
    <i type="int" name="ISTART">     0</i>
    <i type="int" name="ICHARG">     2</i>
    <i type="int" name="INIWAV">     1</i>
   </separator>
   <separator name="electronic spin" >
    <i type="int" name="ISPIN">     1</i>
    <i type="logical" name="LNONCOLLINEAR"> F  </i>
    <v name="MAGMOM">      1.00000000      1.00000000      1.00000000      1.00000000</v>
    <i name="NUPDOWN">     -1.00000000</i>
    <i type="logical" name="LSORBIT"> F  </i>
    <v name="SAXIS">      0.00000000      0.00000000      1.00000000</v>
    <i type="logical" name="LSPIRAL"> F  </i>
    <v name="QSPIRAL">      0.00000000      0.00000000      0.00000000</v>
    <i type="logical" name="LZEROZ"> F  </i>
   </separator>
   <separator name="electronic exchange-correlation" >
    <i type="logical" name="LASPH"> F  </i>
    <i type="logical" name="LMETAGGA"> F  </i>
   </separator>
   <separator name="electronic convergence" >
    <i type="int" name="NELM">  1000</i>
    <i type="int" name="NELMDL">    -5</i>
    <i type="int" name="NELMIN">     5</i>
    <i name="ENINI">    500.00000000</i>
    <separator name="electronic convergence detail" >
     <i type="logical" name="LDIAG"> T  </i>
     <i type="logical" name="LSUBROT"> F  </i>
     <i name="WEIMIN">      0.00100000</i>
     <i name="EBREAK">      0.00000008</i>
     <i name="DEPER">      0.30000000</i>
     <i type="int" name="NRMM">     4</i>
     <i name="TIME">      0.40000000</i>
    </separator>
   </separator>
   <separator name="electronic mixer" >
    <i name="AMIX">      0.40000000</i>
    <i name="BMIX">      1.00000000</i>
    <i name="AMIN">      0.10000000</i>
    <i name="AMIX_MAG">      1.60000000</i>
    <i name="BMIX_MAG">      1.00000000</i>
    <separator name="electronic mixer details" >
     <i type="int" name="IMIX">     4</i>
     <i type="logical" name="MIXFIRST"> F  </i>
     <i type="int" name="MAXMIX">   -45</i>
     <i name="WC">    100.00000000</i>
     <i type="int" name="INIMIX">     1</i>
     <i type="int" name="MIXPRE">     1</i>
     <i type="int" name="MREMOVE">     5</i>
    </separator>
   </separator>
   <separator name="electronic dipolcorrection" >
    <i type="logical" name="LDIPOL"> F  </i>
    <i type="logical" name="LMONO"> F  </i>
    <i type="int" name="IDIPOL">     0</i>
    <i name="EPSILON">      1.00000000</i>
    <v name="DIPOL">   -100.00000000   -100.00000000   -100.00000000</v>
    <i name="EFIELD">      0.00000000</i>
   </separator>
  </separator>
  <separator name="grids" >
   <i type="int" name="NGX">    28</i>
   <i type="int" name="NGY">    28</i>
   <i type="int" name="NGZ">    48</i>
   <i type="int" name="NGXF">    56</i>
   <i type="int" name="NGYF">    56</i>
   <i type="int" name="NGZF">    96</i>
   <i type="logical" name="ADDGRID"> F  </i>
  </separator>
  <separator name="ionic" >
   <i type="int" name="NSW">    85</i>
   <i type="int" name="IBRION">     6</i>
   <i type="int" name="MDALGO">     0</i>
   <i type="int" name="ISIF">     3</i>
   <i name="PSTRESS">      0.00000000</i>
   <i name="EDIFFG">     -0.01000000</i>
   <i type="int" name="NFREE">     4</i>
   <i name="POTIM">      0.01500000</i>
   <i name="SMASS">     -3.00000000</i>
   <i name="SCALEE">      1.00000000</i>
  </separator>
  <separator name="ionic md" >
   <i name="TEBEG">      0.00010000</i>
   <i name="TEEND">      0.00010000</i>
   <i type="int" name="NBLOCK">     1</i>
   <i type="int" name="KBLOCK">    85</i>
   <i type="int" name="NPACO">   256</i>
   <i name="APACO">     16.00000000</i>
  </separator>
  <separator name="symmetry" >
   <i type="int" name="ISYM">     2</i>
   <i name="SYMPREC">      0.00001000</i>
  </separator>
  <separator name="dos" >
   <i type="int" name="LORBIT">     0</i>
   <v name="RWIGS">     -1.00000000     -1.00000000</v>
   <i type="int" name="NEDOS">   301</i>
   <i name="EMIN">     10.00000000</i>
   <i name="EMAX">    -10.00000000</i>
   <i name="EFERMI">      0.00000000</i>
  </separator>
  <separator name="writing" >
   <i type="int" name="NWRITE">     2</i>
   <i type="logical" name="LWAVE"> F  </i>
   <i type="logical" name="LDOWNSAMPLE"> F  </i>
   <i type="logical" name="LCHARG"> F  </i>
   <i type="logical" name="LPARD"> F  </i>
   <i type="logical" name="LVTOT"> F  </i>
   <i type="logical" name="LVHAR"> F  </i>
   <i type="logical" name="LELF"> F  </i>
   <i type="logical" name="LOPTICS"> F  </i>
   <v name="STM">      0.00000000      0.00000000      0.00000000      0.00000000      0.00000000      0.00000000      0.00000000</v>
  </separator>
  <separator name="performance" >
   <i type="int" name="NPAR">    32</i>
   <i type="int" name="NSIM">     4</i>
   <i type="int" name="NBLK">    -1</i>
   <i type="logical" name="LPLANE"> T  </i>
   <i type="logical" name="LSCALAPACK"> T  </i>
   <i type="logical" name="LSCAAWARE"> F  </i>
   <i type="logical" name="LSCALU"> F  </i>
   <i type="logical" name="LASYNC"> F  </i>
   <i type="logical" name="LORBITALREAL"> F  </i>
  </separator>
  <separator name="miscellaneous" >
   <i type="int" name="IDIOT">     3</i>
   <i type="int" name="ISPECIAL">     0</i>
   <i type="logical" name="LMUSIC"> F  </i>
   <v name="POMASS">     26.98100000     74.92200000</v>
   <v name="DARWINR">      0.00000000      0.00000000</v>
   <v name="DARWINV">      1.00000000      1.00000000</v>
   <i type="logical" name="LCORR"> T  </i>
  </separator>
  <i type="logical" name="GGA_COMPAT"> T  </i>
  <i type="logical" name="LBERRY"> F  </i>
  <i type="int" name="ICORELEVEL">     0</i>
  <i type="logical" name="LDAU"> F  </i>
  <i type="int" name="I_CONSTRAINED_M">     0</i>
  <separator name="electronic exchange-correlation" >
   <i type="string" name="GGA">PE</i>
   <i type="int" name="VOSKOWN">     0</i>
   <i type="logical" name="LHFCALC"> F  </i>
   <i type="string" name="PRECFOCK"></i>
   <i type="logical" name="LSYMGRAD"> F  </i>
   <i type="logical" name="LHFONE"> F  </i>
   <i type="logical" name="LRHFCALC"> F  </i>
   <i type="logical" name="LTHOMAS"> F  </i>
   <i type="logical" name="LMODELHF"> F  </i>
   <i name="ENCUT4O">     -1.00000000</i>
   <i type="int" name="EXXOEP">     0</i>
   <i type="int" name="FOURORBIT">     0</i>
   <i name="AEXX">      0.00000000</i>
   <i name="HFALPHA">      0.00000000</i>
   <i name="MCALPHA">      0.00000000</i>
   <i name="ALDAX">      1.00000000</i>
   <i name="AGGAX">      1.00000000</i>
   <i name="ALDAC">      1.00000000</i>
   <i name="AGGAC">      1.00000000</i>
   <i type="int" name="NKREDX">     1</i>
   <i type="int" name="NKREDY">     1</i>
   <i type="int" name="NKREDZ">     1</i>
   <i type="logical" name="SHIFTRED"> F  </i>
   <i type="logical" name="ODDONLY"> F  </i>
   <i type="logical" name="EVENONLY"> F  </i>
   <i type="int" name="LMAXFOCK">     0</i>
   <i type="int" name="NMAXFOCKAE">     0</i>
   <i type="logical" name="LFOCKAEDFT"> F  </i>
   <i name="HFSCREEN">      0.00000000</i>
   <i name="HFSCREENC">      0.00000000</i>
   <i type="int" name="NBANDSGWLOW">     0</i>
  </separator>
  <separator name="vdW DFT" >
   <i type="logical" name="LUSE_VDW"> F  </i>
   <i name="Zab_VDW">     -0.84910000</i>
   <i name="PARAM1">      0.12340000</i>
   <i name="PARAM2">      1.00000000</i>
   <i name="PARAM3">      0.00000000</i>
  </separator>
  <separator name="model GW" >
   <i type="int" name="MODEL_GW">     0</i>
   <i name="MODEL_EPS0">     11.15653520</i>
   <i name="MODEL_ALPHA">      1.00000000</i>
  </separator>
  <separator name="linear response parameters" >
   <i type="logical" name="LEPSILON"> F  </i>
   <i type="logical" name="LRPA"> F  </i>
   <i type="logical" name="LNABLA"> F  </i>
   <i type="logical" name="LVEL"> F  </i>
   <i type="int" name="KINTER">     0</i>
   <i name="CSHIFT">      0.10000000</i>
   <i name="OMEGAMAX">     -1.00000000</i>
   <i name="DEG_THRESHOLD">      0.00200000</i>
   <i name="RTIME">     -0.10000000</i>
   <i name="WPLASMAI">      0.00000000</i>
   <v name="DFIELD">      0.00000000      0.00000000      0.00000000</v>
   <v name="WPLASMA">      0.00000000      0.00000000      0.00000000      0.00000000      0.00000000      0.00000000      0.00000000      0.00000000      0.00000000</v>
  </separator>
  <separator name="orbital magnetization" >
   <i type="logical" name="NUCIND"> F  </i>
   <v name="MAGPOS">      0.00000000      0.00000000      0.00000000</v>
   <i type="logical" name="LNICSALL"> T  </i>
   <i type="logical" name="ORBITALMAG"> F  </i>
   <i type="logical" name="LMAGBLOCH"> F  </i>
   <i type="logical" name="LCHIMAG"> F  </i>
   <i type="logical" name="LGAUGE"> T  </i>
   <i type="int" name="MAGATOM">     0</i>
   <v name="MAGDIPOL">      0.00000000      0.00000000      0.00000000</v>
   <v name="AVECCONST">      0.00000000      0.00000000      0.00000000</v>
  </separator>
  <separator name="response functions" >
   <i type="logical" name="LADDER"> F  </i>
   <i type="logical" name="LRPAFORCE"> F  </i>
   <i type="logical" name="LFXC"> F  </i>
   <i type="logical" name="LHARTREE"> T  </i>
   <i type="int" name="IBSE">     0</i>
   <v type="int" name="KPOINT">    -1     0     0     0</v>
   <i type="logical" name="LTCTE"> F  </i>
   <i type="logical" name="LTETE"> F  </i>
   <i type="logical" name="LTRIPLET"> F  </i>
   <i type="logical" name="LFXCEPS"> F  </i>
   <i type="logical" name="LFXHEG"> F  </i>
   <i type="int" name="NATURALO">     2</i>
   <i type="logical" name="L2ORDER"> F  </i>
   <i type="logical" name="LMP2LT"> F  </i>
   <i type="logical" name="LUSEW"> F  </i>
   <i name="ENCUTGW">     -2.00000000</i>
   <i name="ENCUTGWSOFT">     -2.00000000</i>
   <i name="ENCUTLF">     -1.00000000</i>
   <i type="int" name="LMAXMP2">    -1</i>
   <i name="SCISSOR">      0.00000000</i>
   <i type="int" name="NOMEGA">     0</i>
   <i type="int" name="NOMEGAR">     0</i>
   <i type="int" name="NBANDSGW">    -1</i>
   <i type="int" name="NBANDSO">    -1</i>
   <i type="int" name="NBANDSV">    -1</i>
   <i type="int" name="NELM">  1000</i>
   <i type="int" name="NELMHF">     1</i>
   <i type="int" name="DIM">     3</i>
   <i type="int" name="ANTIRES">     0</i>
   <i name="OMEGAMAX">    -30.00000000</i>
   <i name="OMEGAMIN">    -30.00000000</i>
   <i name="OMEGATL">   -200.00000000</i>
   <i type="int" name="OMEGAGRID">   140</i>
   <i name="CSHIFT">     -0.10000000</i>
   <i type="logical" name="SELFENERGY"> F  </i>
   <i type="logical" name="LSPECTRAL"> F  </i>
   <i type="logical" name="LSPECTRALGW"> F  </i>
   <i type="logical" name="LSINGLES"> F  </i>
   <i type="logical" name="LFERMIGW"> F  </i>
   <i type="logical" name="ODDONLYGW"> F  </i>
   <i type="logical" name="EVENONLYGW"> F  </i>
   <i type="int" name="NKREDLFX">     1</i>
   <i type="int" name="NKREDLFY">     1</i>
   <i type="int" name="NKREDLFZ">     1</i>
   <i type="int" name="MAXMEM">  2800</i>
   <i type="int" name="TELESCOPE">     0</i>
   <i type="int" name="TAUPAR">     1</i>
   <i type="int" name="OMEGAPAR">    -1</i>
   <i name="LAMBDA">      1.00000000</i>
  </separator>
  <separator name="External order field" >
   <i name="OFIELD_KAPPA">      0.00000000</i>
   <v name="OFIELD_K">      0.00000000      0.00000000      0.00000000</v>
   <i name="OFIELD_Q6_NEAR">      0.00000000</i>
   <i name="OFIELD_Q6_FAR">      0.00000000</i>
   <i name="OFIELD_A">      0.00000000</i>
  </separator>
 </parameters>
 <atominfo>
  <atoms>       4 </atoms>
  <types>       2 </types>
  <array name="atoms" >
   <dimension dim="1">ion</dimension>
   <field type="string">element</field>
   <field type="int">atomtype</field>
   <set>
    <rc><c>Al</c><c>   1</c></rc>
    <rc><c>Al</c><c>   1</c></rc>
    <rc><c>As</c><c>   2</c></rc>
    <rc><c>As</c><c>   2</c></rc>
   </set>
  </array>
  <array name="atomtypes" >
   <dimension dim="1">type</dimension>
   <field type="int">atomspertype</field>
   <field type="string">element</field>
   <field>mass</field>
   <field>valence</field>
   <field type="string">pseudopotential</field>
   <set>
    <rc><c>   2</c><c>Al</c><c>     26.98100000</c><c>      3.00000000</c><c>  PAW_PBE Al 04Jan2001                  </c></rc>
    <rc><c>   2</c><c>As</c><c>     74.92200000</c><c>      5.00000000</c><c>  PAW_PBE As 22Sep2009                  </c></rc>
   </set>
  </array>
 </atominfo>
 <structure name="initialpos" >
  <crystal>
   <varray name="basis" >
    <v>       3.79777062       0.00000000       0.00000000 </v>
    <v>      -1.89888531       3.28896583       0.00000000 </v>
    <v>       0.00000000       0.00000000       5.95456429 </v>
   </varray>
   <i name="volume">     74.37690135 </i>
   <varray name="rec_basis" >
    <v>       0.26331237       0.15202347       0.00000000 </v>
    <v>       0.00000000       0.30404694       0.00000000 </v>
    <v>       0.00000000       0.00000000       0.16793840 </v>
   </varray>
  </crystal>
  <varray name="positions" >
   <v>       0.00000000       0.00000000       0.00000000 </v>
   <v>       0.00000000       0.00000000       0.50000000 </v>
   <v>       0.33333334       0.66666669       0.25000000 </v>
   <v>       0.66666663       0.33333331       0.75000000 </v>
  </varray>
 </structure>
 <calculation>
  <scstep>
   <time name="dav">    2.68    2.70</time>
   <time name="total">    2.70    2.75</time>
   <energy>
    <i name="alphaZ">     19.93105703 </i>
    <i name="ewald">   -510.83609604 </i>
    <i name="hartreedc">    -19.23180048 </i>
    <i name="XCdc">    -75.49496808 </i>
    <i name="pawpsdc">    426.52914852 </i>
    <i name="pawaedc">   -319.74627754 </i>
    <i name="eentropy">     -0.00057132 </i>
    <i name="bandstr">     41.35303556 </i>
    <i name="atom">    447.44913212 </i>
    <i name="e_fr_energy">      9.95265976 </i>
    <i name="e_wo_entrp">      9.95323109 </i>
    <i name="e_0_energy">      9.95294543 </i>
   </energy>
  </scstep>
  <scstep>
   <time name="dav">    5.10    5.44</time>
   <time name="total">    5.10    5.44</time>
   <energy>
    <i name="e_fr_energy">    -17.79727802 </i>
    <i name="e_wo_entrp">    -17.79702135 </i>
    <i name="e_0_energy">    -17.79714969 </i>
   </energy>
  </scstep>
  <scstep>
   <time name="dav">    3.49    3.63</time>
   <time name="total">    3.49    3.63</time>
   <energy>
    <i name="e_fr_energy">    -18.03364552 </i>
    <i name="e_wo_entrp">    -18.03342645 </i>
    <i name="e_0_energy">    -18.03353598 </i>
   </energy>
  </scstep>
  <scstep>
   <time name="dav">    8.85    9.43</time>
   <time name="total">    8.85    9.43</time>
   <energy>
    <i name="e_fr_energy">    -18.03411430 </i>
    <i name="e_wo_entrp">    -18.03389530 </i>
    <i name="e_0_energy">    -18.03400480 </i>
   </energy>
  </scstep>
  <scstep>
   <time name="dav">    3.78    3.89</time>
   <time name="total">    3.88    4.03</time>
   <energy>
    <i name="e_fr_energy">    -18.03411432 </i>
    <i name="e_wo_entrp">    -18.03389531 </i>
    <i name="e_0_energy">    -18.03400481 </i>
   </energy>
  </scstep>
  <scstep>
   <time name="dav">    6.18    6.55</time>
   <time name="total">    6.28    6.66</time>
   <energy>
    <i name="e_fr_energy">    -17.82635014 </i>
    <i name="e_wo_entrp">    -17.82598772 </i>
    <i name="e_0_energy">    -17.82616893 </i>
   </energy>
  </scstep>
  <scstep>
   <time name="dav">    6.74    7.41</time>
   <time name="total">    6.85    7.53</time>
   <energy>
    <i name="e_fr_energy">    -17.79345918 </i>
    <i name="e_wo_entrp">    -17.79312059 </i>
    <i name="e_0_energy">    -17.79328989 </i>
   </energy>
  </scstep>
  <scstep>
   <time name="dav">    4.54    4.99</time>
   <time name="total">    4.64    5.09</time>
   <energy>
    <i name="e_fr_energy">    -17.79221932 </i>
    <i name="e_wo_entrp">    -17.79185787 </i>
    <i name="e_0_energy">    -17.79203859 </i>
   </energy>
  </scstep>
  <scstep>
   <time name="dav">    7.06    7.28</time>
   <time name="total">    7.16    7.38</time>
   <energy>
    <i name="e_fr_energy">    -17.79231103 </i>
    <i name="e_wo_entrp">    -17.79196341 </i>
    <i name="e_0_energy">    -17.79213722 </i>
   </energy>
  </scstep>
  <scstep>
   <time name="dav">    5.50    5.80</time>
   <time name="total">    5.61    5.91</time>
   <energy>
    <i name="e_fr_energy">    -17.79234957 </i>
    <i name="e_wo_entrp">    -17.79200838 </i>
    <i name="e_0_energy">    -17.79217898 </i>
   </energy>
  </scstep>
  <scstep>
   <time name="dav">    5.38    5.48</time>
   <time name="total">    5.40    5.50</time>
   <energy>
    <i name="alphaZ">     19.93105703 </i>
    <i name="ewald">   -510.83609604 </i>
    <i name="hartreedc">    -22.91099379 </i>
    <i name="XCdc">    -74.61559658 </i>
    <i name="pawpsdc">    740.02043447 </i>
    <i name="pawaedc">   -633.50471798 </i>
    <i name="eentropy">     -0.00034355 </i>
    <i name="bandstr">     16.67477326 </i>
    <i name="atom">    447.44913212 </i>
    <i name="e_fr_energy">    -17.79235106 </i>
    <i name="e_wo_entrp">    -17.79200751 </i>
    <i name="e_0_energy">    -17.79217929 </i>
   </energy>
  </scstep>
  <structure>
   <crystal>
    <varray name="basis" >
     <v>       3.79777062       0.00000000       0.00000000 </v>
     <v>      -1.89888531       3.28896583       0.00000000 </v>
     <v>       0.00000000       0.00000000       5.95456429 </v>
    </varray>
    <i name="volume">     74.37690135 </i>
    <varray name="rec_basis" >
     <v>       0.26331237       0.15202347       0.00000000 </v>
     <v>       0.00000000       0.30404694       0.00000000 </v>
     <v>       0.00000000       0.00000000       0.16793840 </v>
    </varray>
   </crystal>
   <varray name="positions" >
    <v>       0.00000000       0.00000000       0.00000000 </v>
    <v>       0.00000000       0.00000000       0.50000000 </v>
    <v>       0.33333334       0.66666669       0.25000000 </v>
    <v>       0.66666663       0.33333331       0.75000000 </v>
   </varray>
  </structure>
  <varray name="forces" >
   <v>       0.00000000       0.00000000      -0.00000000 </v>
   <v>       0.00000000       0.00000000      -0.00000000 </v>
   <v>      -0.00000000      -0.00000000       0.00000000 </v>
   <v>      -0.00000000       0.00000000       0.00000000 </v>
  </varray>
  <varray name="stress" >
   <v>       0.90222569      -0.00000000       0.00000000 </v>
   <v>       0.00000000       0.90222569       0.00000000 </v>
   <v>       0.00000000       0.00000000      -0.05872691 </v>
  </varray>
  <energy>
   <i name="e_fr_energy">    -17.79235106 </i>
   <i name="e_wo_entrp">    -17.79217929 </i>
   <i name="e_0_energy">     -0.00034355 </i>
  </energy>
  <kpoints>
   <generation param="Gamma">
    <v type="int" name="divisions">      12       12        8 </v>
    <v name="usershift">      0.00000000       0.00000000       0.00000000 </v>
    <v name="genvec1">      0.08333333       0.00000000       0.00000000 </v>
    <v name="genvec2">      0.00000000       0.08333333       0.00000000 </v>
    <v name="genvec3">      0.00000000       0.00000000       0.12500000 </v>
    <v name="shift">      0.00000000       0.00000000       0.00000000 </v>
   </generation>
   <varray name="kpointlist" >
    <v>       0.00000000       0.00000000       0.00000000 </v>
    <v>       0.08333333      -0.00000000       0.00000000 </v>
    <v>       0.16666667      -0.00000000       0.00000000 </v>
    <v>       0.25000000      -0.00000000       0.00000000 </v>
    <v>       0.33333333      -0.00000000       0.00000000 </v>
    <v>       0.41666667      -0.00000000       0.00000000 </v>
    <v>       0.50000000      -0.00000000       0.00000000 </v>
    <v>       0.00000000       0.08333333       0.00000000 </v>
    <v>       0.08333333       0.08333333       0.00000000 </v>
    <v>       0.16666667       0.08333333       0.00000000 </v>
    <v>       0.25000000       0.08333333       0.00000000 </v>
    <v>       0.33333333       0.08333333       0.00000000 </v>
    <v>       0.41666667       0.08333333       0.00000000 </v>
    <v>       0.50000000       0.08333333       0.00000000 </v>
    <v>      -0.41666667       0.08333333       0.00000000 </v>
    <v>      -0.33333333       0.08333333       0.00000000 </v>
    <v>      -0.25000000       0.08333333       0.00000000 </v>
    <v>      -0.16666667       0.08333333       0.00000000 </v>
    <v>       0.00000000       0.16666667       0.00000000 </v>
    <v>       0.08333333       0.16666667       0.00000000 </v>
    <v>       0.16666667       0.16666667       0.00000000 </v>
    <v>       0.25000000       0.16666667       0.00000000 </v>
    <v>       0.33333333       0.16666667       0.00000000 </v>
    <v>       0.41666667       0.16666667       0.00000000 </v>
    <v>       0.50000000       0.16666667       0.00000000 </v>
    <v>      -0.41666667       0.16666667       0.00000000 </v>
    <v>      -0.33333333       0.16666667       0.00000000 </v>
    <v>       0.00000000       0.25000000       0.00000000 </v>
    <v>       0.08333333       0.25000000       0.00000000 </v>
    <v>       0.16666667       0.25000000       0.00000000 </v>
    <v>       0.25000000       0.25000000       0.00000000 </v>
    <v>       0.33333333       0.25000000       0.00000000 </v>
    <v>       0.41666667       0.25000000       0.00000000 </v>
    <v>       0.50000000       0.25000000       0.00000000 </v>
    <v>       0.00000000       0.33333333       0.00000000 </v>
    <v>       0.08333333       0.33333333       0.00000000 </v>
    <v>       0.16666667       0.33333333       0.00000000 </v>
    <v>       0.25000000       0.33333333       0.00000000 </v>
    <v>       0.33333333       0.33333333       0.00000000 </v>
    <v>       0.00000000       0.41666667       0.00000000 </v>
    <v>       0.08333333       0.41666667       0.00000000 </v>
    <v>       0.16666667       0.41666667       0.00000000 </v>
    <v>       0.00000000       0.50000000       0.00000000 </v>
    <v>       0.00000000       0.00000000       0.12500000 </v>
    <v>       0.08333333      -0.00000000       0.12500000 </v>
    <v>       0.16666667      -0.00000000       0.12500000 </v>
    <v>       0.25000000      -0.00000000       0.12500000 </v>
    <v>       0.33333333      -0.00000000       0.12500000 </v>
    <v>       0.41666667      -0.00000000       0.12500000 </v>
    <v>       0.50000000      -0.00000000       0.12500000 </v>
    <v>       0.00000000       0.08333333       0.12500000 </v>
    <v>       0.08333333       0.08333333       0.12500000 </v>
    <v>       0.16666667       0.08333333       0.12500000 </v>
    <v>       0.25000000       0.08333333       0.12500000 </v>
    <v>       0.33333333       0.08333333       0.12500000 </v>
    <v>       0.41666667       0.08333333       0.12500000 </v>
    <v>       0.50000000       0.08333333       0.12500000 </v>
    <v>      -0.41666667       0.08333333       0.12500000 </v>
    <v>      -0.33333333       0.08333333       0.12500000 </v>
    <v>      -0.25000000       0.08333333       0.12500000 </v>
    <v>      -0.16666667       0.08333333       0.12500000 </v>
    <v>       0.00000000       0.16666667       0.12500000 </v>
    <v>       0.08333333       0.16666667       0.12500000 </v>
    <v>       0.16666667       0.16666667       0.12500000 </v>
    <v>       0.25000000       0.16666667       0.12500000 </v>
    <v>       0.33333333       0.16666667       0.12500000 </v>
    <v>       0.41666667       0.16666667       0.12500000 </v>
    <v>       0.50000000       0.16666667       0.12500000 </v>
    <v>      -0.41666667       0.16666667       0.12500000 </v>
    <v>      -0.33333333       0.16666667       0.12500000 </v>
    <v>       0.00000000       0.25000000       0.12500000 </v>
    <v>       0.08333333       0.25000000       0.12500000 </v>
    <v>       0.16666667       0.25000000       0.12500000 </v>
    <v>       0.25000000       0.25000000       0.12500000 </v>
    <v>       0.33333333       0.25000000       0.12500000 </v>
    <v>       0.41666667       0.25000000       0.12500000 </v>
    <v>       0.50000000       0.25000000       0.12500000 </v>
    <v>       0.00000000       0.33333333       0.12500000 </v>
    <v>       0.08333333       0.33333333       0.12500000 </v>
    <v>       0.16666667       0.33333333       0.12500000 </v>
    <v>       0.25000000       0.33333333       0.12500000 </v>
    <v>       0.33333333       0.33333333       0.12500000 </v>
    <v>       0.00000000       0.41666667       0.12500000 </v>
    <v>       0.08333333       0.41666667       0.12500000 </v>
    <v>       0.16666667       0.41666667       0.12500000 </v>
    <v>       0.00000000       0.50000000       0.12500000 </v>
    <v>       0.00000000       0.00000000       0.25000000 </v>
    <v>       0.08333333      -0.00000000       0.25000000 </v>
    <v>       0.16666667      -0.00000000       0.25000000 </v>
    <v>       0.25000000      -0.00000000       0.25000000 </v>
    <v>       0.33333333      -0.00000000       0.25000000 </v>
    <v>       0.41666667      -0.00000000       0.25000000 </v>
    <v>       0.50000000      -0.00000000       0.25000000 </v>
    <v>       0.00000000       0.08333333       0.25000000 </v>
    <v>       0.08333333       0.08333333       0.25000000 </v>
    <v>       0.16666667       0.08333333       0.25000000 </v>
    <v>       0.25000000       0.08333333       0.25000000 </v>
    <v>       0.33333333       0.08333333       0.25000000 </v>
    <v>       0.41666667       0.08333333       0.25000000 </v>
    <v>       0.50000000       0.08333333       0.25000000 </v>
    <v>      -0.41666667       0.08333333       0.25000000 </v>
    <v>      -0.33333333       0.08333333       0.25000000 </v>
    <v>      -0.25000000       0.08333333       0.25000000 </v>
    <v>      -0.16666667       0.08333333       0.25000000 </v>
    <v>       0.00000000       0.16666667       0.25000000 </v>
    <v>       0.08333333       0.16666667       0.25000000 </v>
    <v>       0.16666667       0.16666667       0.25000000 </v>
    <v>       0.25000000       0.16666667       0.25000000 </v>
    <v>       0.33333333       0.16666667       0.25000000 </v>
    <v>       0.41666667       0.16666667       0.25000000 </v>
    <v>       0.50000000       0.16666667       0.25000000 </v>
    <v>      -0.41666667       0.16666667       0.25000000 </v>
    <v>      -0.33333333       0.16666667       0.25000000 </v>
    <v>       0.00000000       0.25000000       0.25000000 </v>
    <v>       0.08333333       0.25000000       0.25000000 </v>
    <v>       0.16666667       0.25000000       0.25000000 </v>
    <v>       0.25000000       0.25000000       0.25000000 </v>
    <v>       0.33333333       0.25000000       0.25000000 </v>
    <v>       0.41666667       0.25000000       0.25000000 </v>
    <v>       0.50000000       0.25000000       0.25000000 </v>
    <v>       0.00000000       0.33333333       0.25000000 </v>
    <v>       0.08333333       0.33333333       0.25000000 </v>
    <v>       0.16666667       0.33333333       0.25000000 </v>
    <v>       0.25000000       0.33333333       0.25000000 </v>
    <v>       0.33333333       0.33333333       0.25000000 </v>
    <v>       0.00000000       0.41666667       0.25000000 </v>
    <v>       0.08333333       0.41666667       0.25000000 </v>
    <v>       0.16666667       0.41666667       0.25000000 </v>
    <v>       0.00000000       0.50000000       0.25000000 </v>
    <v>       0.00000000       0.00000000       0.37500000 </v>
    <v>       0.08333333      -0.00000000       0.37500000 </v>
    <v>       0.16666667      -0.00000000       0.37500000 </v>
    <v>       0.25000000      -0.00000000       0.37500000 </v>
    <v>       0.33333333      -0.00000000       0.37500000 </v>
    <v>       0.41666667      -0.00000000       0.37500000 </v>
    <v>       0.50000000      -0.00000000       0.37500000 </v>
    <v>       0.00000000       0.08333333       0.37500000 </v>
    <v>       0.08333333       0.08333333       0.37500000 </v>
    <v>       0.16666667       0.08333333       0.37500000 </v>
    <v>       0.25000000       0.08333333       0.37500000 </v>
    <v>       0.33333333       0.08333333       0.37500000 </v>
    <v>       0.41666667       0.08333333       0.37500000 </v>
    <v>       0.50000000       0.08333333       0.37500000 </v>
    <v>      -0.41666667       0.08333333       0.37500000 </v>
    <v>      -0.33333333       0.08333333       0.37500000 </v>
    <v>      -0.25000000       0.08333333       0.37500000 </v>
    <v>      -0.16666667       0.08333333       0.37500000 </v>
    <v>       0.00000000       0.16666667       0.37500000 </v>
    <v>       0.08333333       0.16666667       0.37500000 </v>
    <v>       0.16666667       0.16666667       0.37500000 </v>
    <v>       0.25000000       0.16666667       0.37500000 </v>
    <v>       0.33333333       0.16666667       0.37500000 </v>
    <v>       0.41666667       0.16666667       0.37500000 </v>
    <v>       0.50000000       0.16666667       0.37500000 </v>
    <v>      -0.41666667       0.16666667       0.37500000 </v>
    <v>      -0.33333333       0.16666667       0.37500000 </v>
    <v>       0.00000000       0.25000000       0.37500000 </v>
    <v>       0.08333333       0.25000000       0.37500000 </v>
    <v>       0.16666667       0.25000000       0.37500000 </v>
    <v>       0.25000000       0.25000000       0.37500000 </v>
    <v>       0.33333333       0.25000000       0.37500000 </v>
    <v>       0.41666667       0.25000000       0.37500000 </v>
    <v>       0.50000000       0.25000000       0.37500000 </v>
    <v>       0.00000000       0.33333333       0.37500000 </v>
    <v>       0.08333333       0.33333333       0.37500000 </v>
    <v>       0.16666667       0.33333333       0.37500000 </v>
    <v>       0.25000000       0.33333333       0.37500000 </v>
    <v>       0.33333333       0.33333333       0.37500000 </v>
    <v>       0.00000000       0.41666667       0.37500000 </v>
    <v>       0.08333333       0.41666667       0.37500000 </v>
    <v>       0.16666667       0.41666667       0.37500000 </v>
    <v>       0.00000000       0.50000000       0.37500000 </v>
    <v>       0.00000000       0.00000000       0.50000000 </v>
    <v>       0.08333333      -0.00000000       0.50000000 </v>
    <v>       0.16666667      -0.00000000       0.50000000 </v>
    <v>       0.25000000      -0.00000000       0.50000000 </v>
    <v>       0.33333333      -0.00000000       0.50000000 </v>
    <v>       0.41666667      -0.00000000       0.50000000 </v>
    <v>       0.50000000      -0.00000000       0.50000000 </v>
    <v>       0.00000000       0.08333333       0.50000000 </v>
    <v>       0.08333333       0.08333333       0.50000000 </v>
    <v>       0.16666667       0.08333333       0.50000000 </v>
    <v>       0.25000000       0.08333333       0.50000000 </v>
    <v>       0.33333333       0.08333333       0.50000000 </v>
    <v>       0.41666667       0.08333333       0.50000000 </v>
    <v>       0.50000000       0.08333333       0.50000000 </v>
    <v>      -0.41666667       0.08333333       0.50000000 </v>
    <v>      -0.33333333       0.08333333       0.50000000 </v>
    <v>      -0.25000000       0.08333333       0.50000000 </v>
    <v>      -0.16666667       0.08333333       0.50000000 </v>
    <v>       0.00000000       0.16666667       0.50000000 </v>
    <v>       0.08333333       0.16666667       0.50000000 </v>
    <v>       0.16666667       0.16666667       0.50000000 </v>
    <v>       0.25000000       0.16666667       0.50000000 </v>
    <v>       0.33333333       0.16666667       0.50000000 </v>
    <v>       0.41666667       0.16666667       0.50000000 </v>
    <v>       0.50000000       0.16666667       0.50000000 </v>
    <v>      -0.41666667       0.16666667       0.50000000 </v>
    <v>      -0.33333333       0.16666667       0.50000000 </v>
    <v>       0.00000000       0.25000000       0.50000000 </v>
    <v>       0.08333333       0.25000000       0.50000000 </v>
    <v>       0.16666667       0.25000000       0.50000000 </v>
    <v>       0.25000000       0.25000000       0.50000000 </v>
    <v>       0.33333333       0.25000000       0.50000000 </v>
    <v>       0.41666667       0.25000000       0.50000000 </v>
    <v>       0.50000000       0.25000000       0.50000000 </v>
    <v>       0.00000000       0.33333333       0.50000000 </v>
    <v>       0.08333333       0.33333333       0.50000000 </v>
    <v>       0.16666667       0.33333333       0.50000000 </v>
    <v>       0.25000000       0.33333333       0.50000000 </v>
    <v>       0.33333333       0.33333333       0.50000000 </v>
    <v>       0.00000000       0.41666667       0.50000000 </v>
    <v>       0.08333333       0.41666667       0.50000000 </v>
    <v>       0.16666667       0.41666667       0.50000000 </v>
    <v>       0.00000000       0.50000000       0.50000000 </v>
   </varray>
   <varray name="weights" >
    <v>       0.00086806 </v>
    <v>       0.00347222 </v>
    <v>       0.00347222 </v>
    <v>       0.00347222 </v>
    <v>       0.00347222 </v>
    <v>       0.00347222 </v>
    <v>       0.00173611 </v>
    <v>       0.00173611 </v>
    <v>       0.00347222 </v>
    <v>       0.00347222 </v>
    <v>       0.00347222 </v>
    <v>       0.00347222 </v>
    <v>       0.00347222 </v>
    <v>       0.00347222 </v>
    <v>       0.00347222 </v>
    <v>       0.00347222 </v>
    <v>       0.00347222 </v>
    <v>       0.00173611 </v>
    <v>       0.00173611 </v>
    <v>       0.00347222 </v>
    <v>       0.00347222 </v>
    <v>       0.00347222 </v>
    <v>       0.00347222 </v>
    <v>       0.00347222 </v>
    <v>       0.00347222 </v>
    <v>       0.00347222 </v>
    <v>       0.00173611 </v>
    <v>       0.00173611 </v>
    <v>       0.00347222 </v>
    <v>       0.00347222 </v>
    <v>       0.00347222 </v>
    <v>       0.00347222 </v>
    <v>       0.00347222 </v>
    <v>       0.00173611 </v>
    <v>       0.00173611 </v>
    <v>       0.00347222 </v>
    <v>       0.00347222 </v>
    <v>       0.00347222 </v>
    <v>       0.00173611 </v>
    <v>       0.00173611 </v>
    <v>       0.00347222 </v>
    <v>       0.00173611 </v>
    <v>       0.00086806 </v>
    <v>       0.00173611 </v>
    <v>       0.00694444 </v>
    <v>       0.00694444 </v>
    <v>       0.00694444 </v>
    <v>       0.00694444 </v>
    <v>       0.00694444 </v>
    <v>       0.00347222 </v>
    <v>       0.00347222 </v>
    <v>       0.00694444 </v>
    <v>       0.00694444 </v>
    <v>       0.00694444 </v>
    <v>       0.00694444 </v>
    <v>       0.00694444 </v>
    <v>       0.00694444 </v>
    <v>       0.00694444 </v>
    <v>       0.00694444 </v>
    <v>       0.00694444 </v>
    <v>       0.00347222 </v>
    <v>       0.00347222 </v>
    <v>       0.00694444 </v>
    <v>       0.00694444 </v>
    <v>       0.00694444 </v>
    <v>       0.00694444 </v>
    <v>       0.00694444 </v>
    <v>       0.00694444 </v>
    <v>       0.00694444 </v>
    <v>       0.00347222 </v>
    <v>       0.00347222 </v>
    <v>       0.00694444 </v>
    <v>       0.00694444 </v>
    <v>       0.00694444 </v>
    <v>       0.00694444 </v>
    <v>       0.00694444 </v>
    <v>       0.00347222 </v>
    <v>       0.00347222 </v>
    <v>       0.00694444 </v>
    <v>       0.00694444 </v>
    <v>       0.00694444 </v>
    <v>       0.00347222 </v>
    <v>       0.00347222 </v>
    <v>       0.00694444 </v>
    <v>       0.00347222 </v>
    <v>       0.00173611 </v>
    <v>       0.00173611 </v>
    <v>       0.00694444 </v>
    <v>       0.00694444 </v>
    <v>       0.00694444 </v>
    <v>       0.00694444 </v>
    <v>       0.00694444 </v>
    <v>       0.00347222 </v>
    <v>       0.00347222 </v>
    <v>       0.00694444 </v>
    <v>       0.00694444 </v>
    <v>       0.00694444 </v>
    <v>       0.00694444 </v>
    <v>       0.00694444 </v>
    <v>       0.00694444 </v>
    <v>       0.00694444 </v>
    <v>       0.00694444 </v>
    <v>       0.00694444 </v>
    <v>       0.00347222 </v>
    <v>       0.00347222 </v>
    <v>       0.00694444 </v>
    <v>       0.00694444 </v>
    <v>       0.00694444 </v>
    <v>       0.00694444 </v>
    <v>       0.00694444 </v>
    <v>       0.00694444 </v>
    <v>       0.00694444 </v>
    <v>       0.00347222 </v>
    <v>       0.00347222 </v>
    <v>       0.00694444 </v>
    <v>       0.00694444 </v>
    <v>       0.00694444 </v>
    <v>       0.00694444 </v>
    <v>       0.00694444 </v>
    <v>       0.00347222 </v>
    <v>       0.00347222 </v>
    <v>       0.00694444 </v>
    <v>       0.00694444 </v>
    <v>       0.00694444 </v>
    <v>       0.00347222 </v>
    <v>       0.00347222 </v>
    <v>       0.00694444 </v>
    <v>       0.00347222 </v>
    <v>       0.00173611 </v>
    <v>       0.00173611 </v>
    <v>       0.00694444 </v>
    <v>       0.00694444 </v>
    <v>       0.00694444 </v>
    <v>       0.00694444 </v>
    <v>       0.00694444 </v>
    <v>       0.00347222 </v>
    <v>       0.00347222 </v>
    <v>       0.00694444 </v>
    <v>       0.00694444 </v>
    <v>       0.00694444 </v>
    <v>       0.00694444 </v>
    <v>       0.00694444 </v>
    <v>       0.00694444 </v>
    <v>       0.00694444 </v>
    <v>       0.00694444 </v>
    <v>       0.00694444 </v>
    <v>       0.00347222 </v>
    <v>       0.00347222 </v>
    <v>       0.00694444 </v>
    <v>       0.00694444 </v>
    <v>       0.00694444 </v>
    <v>       0.00694444 </v>
    <v>       0.00694444 </v>
    <v>       0.00694444 </v>
    <v>       0.00694444 </v>
    <v>       0.00347222 </v>
    <v>       0.00347222 </v>
    <v>       0.00694444 </v>
    <v>       0.00694444 </v>
    <v>       0.00694444 </v>
    <v>       0.00694444 </v>
    <v>       0.00694444 </v>
    <v>       0.00347222 </v>
    <v>       0.00347222 </v>
    <v>       0.00694444 </v>
    <v>       0.00694444 </v>
    <v>       0.00694444 </v>
    <v>       0.00347222 </v>
    <v>       0.00347222 </v>
    <v>       0.00694444 </v>
    <v>       0.00347222 </v>
    <v>       0.00173611 </v>
    <v>       0.00086806 </v>
    <v>       0.00347222 </v>
    <v>       0.00347222 </v>
    <v>       0.00347222 </v>
    <v>       0.00347222 </v>
    <v>       0.00347222 </v>
    <v>       0.00173611 </v>
    <v>       0.00173611 </v>
    <v>       0.00347222 </v>
    <v>       0.00347222 </v>
    <v>       0.00347222 </v>
    <v>       0.00347222 </v>
    <v>       0.00347222 </v>
    <v>       0.00347222 </v>
    <v>       0.00347222 </v>
    <v>       0.00347222 </v>
    <v>       0.00347222 </v>
    <v>       0.00173611 </v>
    <v>       0.00173611 </v>
    <v>       0.00347222 </v>
    <v>       0.00347222 </v>
    <v>       0.00347222 </v>
    <v>       0.00347222 </v>
    <v>       0.00347222 </v>
    <v>       0.00347222 </v>
    <v>       0.00347222 </v>
    <v>       0.00173611 </v>
    <v>       0.00173611 </v>
    <v>       0.00347222 </v>
    <v>       0.00347222 </v>
    <v>       0.00347222 </v>
    <v>       0.00347222 </v>
    <v>       0.00347222 </v>
    <v>       0.00173611 </v>
    <v>       0.00173611 </v>
    <v>       0.00347222 </v>
    <v>       0.00347222 </v>
    <v>       0.00347222 </v>
    <v>       0.00173611 </v>
    <v>       0.00173611 </v>
    <v>       0.00347222 </v>
    <v>       0.00173611 </v>
    <v>       0.00086806 </v>
   </varray>
  </kpoints>
  <time name="totalsc">   62.28   65.77</time>
 </calculation>
 <calculation>
  <scstep>
   <time name="dav">   14.93   15.64</time>
   <time name="total">   15.16   15.88</time>
   <energy>
    <i name="alphaZ">     19.35054080 </i>
    <i name="ewald">   -505.72362438 </i>
    <i name="hartreedc">    -22.69305894 </i>
    <i name="XCdc">    -74.81421846 </i>
    <i name="pawpsdc">    739.20732636 </i>
    <i name="pawaedc">   -632.69148630 </i>
    <i name="eentropy">     -0.00021106 </i>
    <i name="bandstr">     12.11934202 </i>
    <i name="atom">    447.44913212 </i>
    <i name="e_fr_energy">    -17.79625784 </i>
    <i name="e_wo_entrp">    -17.79604678 </i>
    <i name="e_0_energy">    -17.79615231 </i>
   </energy>
  </scstep>
  <scstep>
   <time name="dav">    8.12    8.47</time>
   <time name="total">    8.33    8.69</time>
   <energy>
    <i name="e_fr_energy">    -17.77372495 </i>
    <i name="e_wo_entrp">    -17.77348587 </i>
    <i name="e_0_energy">    -17.77360541 </i>
   </energy>
  </scstep>
  <scstep>
   <time name="dav">   16.57   17.36</time>
   <time name="total">   16.78   17.57</time>
   <energy>
    <i name="e_fr_energy">    -17.76627754 </i>
    <i name="e_wo_entrp">    -17.76602034 </i>
    <i name="e_0_energy">    -17.76614894 </i>
   </energy>
  </scstep>
  <scstep>
   <time name="dav">    8.42    8.48</time>
   <time name="total">    8.63    8.69</time>
   <energy>
    <i name="e_fr_energy">    -17.76590842 </i>
    <i name="e_wo_entrp">    -17.76564434 </i>
    <i name="e_0_energy">    -17.76577638 </i>
   </energy>
  </scstep>
  <scstep>
   <time name="dav">   16.59   17.07</time>
   <time name="total">   16.80   17.28</time>
   <energy>
    <i name="e_fr_energy">    -17.76586795 </i>
    <i name="e_wo_entrp">    -17.76560412 </i>
    <i name="e_0_energy">    -17.76573603 </i>
   </energy>
  </scstep>
  <scstep>
   <time name="dav">    7.10    7.47</time>
   <time name="total">    7.12    7.49</time>
   <energy>
    <i name="alphaZ">     19.35054080 </i>
    <i name="ewald">   -505.72362438 </i>
    <i name="hartreedc">    -23.67673728 </i>
    <i name="XCdc">    -74.87843882 </i>
    <i name="pawpsdc">    713.43275624 </i>
    <i name="pawaedc">   -606.88630781 </i>
    <i name="eentropy">     -0.00026383 </i>
    <i name="bandstr">     13.16707439 </i>
    <i name="atom">    447.44913212 </i>
    <i name="e_fr_energy">    -17.76586855 </i>
    <i name="e_wo_entrp">    -17.76560473 </i>
    <i name="e_0_energy">    -17.76573664 </i>
   </energy>
  </scstep>
  <structure>
   <crystal>
    <varray name="basis" >
     <v>       3.91170374       0.00000000       0.00000000 </v>
     <v>      -1.95585187       3.28896583       0.00000000 </v>
     <v>       0.00000000       0.00000000       5.95456429 </v>
    </varray>
    <i name="volume">     76.60820839 </i>
    <varray name="rec_basis" >
     <v>       0.25564308       0.15202347       0.00000000 </v>
     <v>       0.00000000       0.30404694       0.00000000 </v>
     <v>       0.00000000       0.00000000       0.16793840 </v>
    </varray>
   </crystal>
   <varray name="positions" >
    <v>       0.00000000       0.00000000       0.00000000 </v>
    <v>       0.00000000       0.00000000       0.50000000 </v>
    <v>       0.33333334       0.66666669       0.25000000 </v>
    <v>       0.66666663       0.33333331       0.75000000 </v>
   </varray>
  </structure>
  <varray name="forces" >
   <v>      -0.00000000       0.00000000       0.00000000 </v>
   <v>       0.00000000       0.00000000       0.00000000 </v>
   <v>       0.00000000       0.03498401       0.00000000 </v>
   <v>      -0.00000000      -0.03498401       0.00000000 </v>
  </varray>
  <varray name="stress" >
   <v>     -36.78373572       0.00000000       0.00000000 </v>
   <v>       0.00000000     -16.02698240       0.00000000 </v>
   <v>       0.00000000       0.00000000     -11.21119415 </v>
  </varray>
  <energy>
   <i name="e_fr_energy">    -17.76586855 </i>
   <i name="e_wo_entrp">    -17.76573664 </i>
   <i name="e_0_energy">     -0.00026383 </i>
  </energy>
  <kpoints>
   <generation param="Gamma">
    <v type="int" name="divisions">      12       12        8 </v>
    <v name="usershift">      0.00000000       0.00000000       0.00000000 </v>
    <v name="genvec1">      0.08333333       0.00000000       0.00000000 </v>
    <v name="genvec2">      0.00000000       0.08333333       0.00000000 </v>
    <v name="genvec3">      0.00000000       0.00000000       0.12500000 </v>
    <v name="shift">      0.00000000       0.00000000       0.00000000 </v>
   </generation>
   <varray name="kpointlist" >
    <v>       0.00000000       0.00000000       0.00000000 </v>
    <v>       0.08333333      -0.00000000       0.00000000 </v>
    <v>       0.16666667      -0.00000000       0.00000000 </v>
    <v>       0.25000000       0.00000000       0.00000000 </v>
    <v>       0.33333333       0.00000000       0.00000000 </v>
    <v>       0.41666667       0.00000000       0.00000000 </v>
    <v>       0.50000000       0.00000000       0.00000000 </v>
    <v>       0.00000000       0.08333333       0.00000000 </v>
    <v>       0.08333333       0.08333333       0.00000000 </v>
    <v>       0.16666667       0.08333333       0.00000000 </v>
    <v>       0.25000000       0.08333333       0.00000000 </v>
    <v>       0.33333333       0.08333333       0.00000000 </v>
    <v>       0.41666667       0.08333333       0.00000000 </v>
    <v>       0.50000000       0.08333333       0.00000000 </v>
    <v>      -0.41666667       0.08333333       0.00000000 </v>
    <v>      -0.33333333       0.08333333       0.00000000 </v>
    <v>      -0.25000000       0.08333333       0.00000000 </v>
    <v>      -0.16666667       0.08333333       0.00000000 </v>
    <v>       0.00000000       0.16666667       0.00000000 </v>
    <v>       0.08333333       0.16666667       0.00000000 </v>
    <v>       0.16666667       0.16666667       0.00000000 </v>
    <v>       0.25000000       0.16666667       0.00000000 </v>
    <v>       0.33333333       0.16666667       0.00000000 </v>
    <v>       0.41666667       0.16666667       0.00000000 </v>
    <v>       0.50000000       0.16666667       0.00000000 </v>
    <v>      -0.41666667       0.16666667       0.00000000 </v>
    <v>      -0.33333333       0.16666667       0.00000000 </v>
    <v>       0.00000000       0.25000000       0.00000000 </v>
    <v>       0.08333333       0.25000000       0.00000000 </v>
    <v>       0.16666667       0.25000000       0.00000000 </v>
    <v>       0.25000000       0.25000000       0.00000000 </v>
    <v>       0.33333333       0.25000000       0.00000000 </v>
    <v>       0.41666667       0.25000000       0.00000000 </v>
    <v>       0.50000000       0.25000000       0.00000000 </v>
    <v>       0.00000000       0.33333333       0.00000000 </v>
    <v>       0.08333333       0.33333333       0.00000000 </v>
    <v>       0.16666667       0.33333333       0.00000000 </v>
    <v>       0.25000000       0.33333333       0.00000000 </v>
    <v>       0.33333333       0.33333333       0.00000000 </v>
    <v>       0.00000000       0.41666667       0.00000000 </v>
    <v>       0.08333333       0.41666667       0.00000000 </v>
    <v>       0.16666667       0.41666667       0.00000000 </v>
    <v>       0.00000000       0.50000000       0.00000000 </v>
    <v>       0.00000000       0.00000000       0.12500000 </v>
    <v>       0.08333333      -0.00000000       0.12500000 </v>
    <v>       0.16666667      -0.00000000       0.12500000 </v>
    <v>       0.25000000       0.00000000       0.12500000 </v>
    <v>       0.33333333       0.00000000       0.12500000 </v>
    <v>       0.41666667       0.00000000       0.12500000 </v>
    <v>       0.50000000       0.00000000       0.12500000 </v>
    <v>       0.00000000       0.08333333       0.12500000 </v>
    <v>       0.08333333       0.08333333       0.12500000 </v>
    <v>       0.16666667       0.08333333       0.12500000 </v>
    <v>       0.25000000       0.08333333       0.12500000 </v>
    <v>       0.33333333       0.08333333       0.12500000 </v>
    <v>       0.41666667       0.08333333       0.12500000 </v>
    <v>       0.50000000       0.08333333       0.12500000 </v>
    <v>      -0.41666667       0.08333333       0.12500000 </v>
    <v>      -0.33333333       0.08333333       0.12500000 </v>
    <v>      -0.25000000       0.08333333       0.12500000 </v>
    <v>      -0.16666667       0.08333333       0.12500000 </v>
    <v>       0.00000000       0.16666667       0.12500000 </v>
    <v>       0.08333333       0.16666667       0.12500000 </v>
    <v>       0.16666667       0.16666667       0.12500000 </v>
    <v>       0.25000000       0.16666667       0.12500000 </v>
    <v>       0.33333333       0.16666667       0.12500000 </v>
    <v>       0.41666667       0.16666667       0.12500000 </v>
    <v>       0.50000000       0.16666667       0.12500000 </v>
    <v>      -0.41666667       0.16666667       0.12500000 </v>
    <v>      -0.33333333       0.16666667       0.12500000 </v>
    <v>       0.00000000       0.25000000       0.12500000 </v>
    <v>       0.08333333       0.25000000       0.12500000 </v>
    <v>       0.16666667       0.25000000       0.12500000 </v>
    <v>       0.25000000       0.25000000       0.12500000 </v>
    <v>       0.33333333       0.25000000       0.12500000 </v>
    <v>       0.41666667       0.25000000       0.12500000 </v>
    <v>       0.50000000       0.25000000       0.12500000 </v>
    <v>       0.00000000       0.33333333       0.12500000 </v>
    <v>       0.08333333       0.33333333       0.12500000 </v>
    <v>       0.16666667       0.33333333       0.12500000 </v>
    <v>       0.25000000       0.33333333       0.12500000 </v>
    <v>       0.33333333       0.33333333       0.12500000 </v>
    <v>       0.00000000       0.41666667       0.12500000 </v>
    <v>       0.08333333       0.41666667       0.12500000 </v>
    <v>       0.16666667       0.41666667       0.12500000 </v>
    <v>       0.00000000       0.50000000       0.12500000 </v>
    <v>       0.00000000       0.00000000       0.25000000 </v>
    <v>       0.08333333      -0.00000000       0.25000000 </v>
    <v>       0.16666667      -0.00000000       0.25000000 </v>
    <v>       0.25000000       0.00000000       0.25000000 </v>
    <v>       0.33333333       0.00000000       0.25000000 </v>
    <v>       0.41666667       0.00000000       0.25000000 </v>
    <v>       0.50000000       0.00000000       0.25000000 </v>
    <v>       0.00000000       0.08333333       0.25000000 </v>
    <v>       0.08333333       0.08333333       0.25000000 </v>
    <v>       0.16666667       0.08333333       0.25000000 </v>
    <v>       0.25000000       0.08333333       0.25000000 </v>
    <v>       0.33333333       0.08333333       0.25000000 </v>
    <v>       0.41666667       0.08333333       0.25000000 </v>
    <v>       0.50000000       0.08333333       0.25000000 </v>
    <v>      -0.41666667       0.08333333       0.25000000 </v>
    <v>      -0.33333333       0.08333333       0.25000000 </v>
    <v>      -0.25000000       0.08333333       0.25000000 </v>
    <v>      -0.16666667       0.08333333       0.25000000 </v>
    <v>       0.00000000       0.16666667       0.25000000 </v>
    <v>       0.08333333       0.16666667       0.25000000 </v>
    <v>       0.16666667       0.16666667       0.25000000 </v>
    <v>       0.25000000       0.16666667       0.25000000 </v>
    <v>       0.33333333       0.16666667       0.25000000 </v>
    <v>       0.41666667       0.16666667       0.25000000 </v>
    <v>       0.50000000       0.16666667       0.25000000 </v>
    <v>      -0.41666667       0.16666667       0.25000000 </v>
    <v>      -0.33333333       0.16666667       0.25000000 </v>
    <v>       0.00000000       0.25000000       0.25000000 </v>
    <v>       0.08333333       0.25000000       0.25000000 </v>
    <v>       0.16666667       0.25000000       0.25000000 </v>
    <v>       0.25000000       0.25000000       0.25000000 </v>
    <v>       0.33333333       0.25000000       0.25000000 </v>
    <v>       0.41666667       0.25000000       0.25000000 </v>
    <v>       0.50000000       0.25000000       0.25000000 </v>
    <v>       0.00000000       0.33333333       0.25000000 </v>
    <v>       0.08333333       0.33333333       0.25000000 </v>
    <v>       0.16666667       0.33333333       0.25000000 </v>
    <v>       0.25000000       0.33333333       0.25000000 </v>
    <v>       0.33333333       0.33333333       0.25000000 </v>
    <v>       0.00000000       0.41666667       0.25000000 </v>
    <v>       0.08333333       0.41666667       0.25000000 </v>
    <v>       0.16666667       0.41666667       0.25000000 </v>
    <v>       0.00000000       0.50000000       0.25000000 </v>
    <v>       0.00000000       0.00000000       0.37500000 </v>
    <v>       0.08333333      -0.00000000       0.37500000 </v>
    <v>       0.16666667      -0.00000000       0.37500000 </v>
    <v>       0.25000000       0.00000000       0.37500000 </v>
    <v>       0.33333333       0.00000000       0.37500000 </v>
    <v>       0.41666667       0.00000000       0.37500000 </v>
    <v>       0.50000000       0.00000000       0.37500000 </v>
    <v>       0.00000000       0.08333333       0.37500000 </v>
    <v>       0.08333333       0.08333333       0.37500000 </v>
    <v>       0.16666667       0.08333333       0.37500000 </v>
    <v>       0.25000000       0.08333333       0.37500000 </v>
    <v>       0.33333333       0.08333333       0.37500000 </v>
    <v>       0.41666667       0.08333333       0.37500000 </v>
    <v>       0.50000000       0.08333333       0.37500000 </v>
    <v>      -0.41666667       0.08333333       0.37500000 </v>
    <v>      -0.33333333       0.08333333       0.37500000 </v>
    <v>      -0.25000000       0.08333333       0.37500000 </v>
    <v>      -0.16666667       0.08333333       0.37500000 </v>
    <v>       0.00000000       0.16666667       0.37500000 </v>
    <v>       0.08333333       0.16666667       0.37500000 </v>
    <v>       0.16666667       0.16666667       0.37500000 </v>
    <v>       0.25000000       0.16666667       0.37500000 </v>
    <v>       0.33333333       0.16666667       0.37500000 </v>
    <v>       0.41666667       0.16666667       0.37500000 </v>
    <v>       0.50000000       0.16666667       0.37500000 </v>
    <v>      -0.41666667       0.16666667       0.37500000 </v>
    <v>      -0.33333333       0.16666667       0.37500000 </v>
    <v>       0.00000000       0.25000000       0.37500000 </v>
    <v>       0.08333333       0.25000000       0.37500000 </v>
    <v>       0.16666667       0.25000000       0.37500000 </v>
    <v>       0.25000000       0.25000000       0.37500000 </v>
    <v>       0.33333333       0.25000000       0.37500000 </v>
    <v>       0.41666667       0.25000000       0.37500000 </v>
    <v>       0.50000000       0.25000000       0.37500000 </v>
    <v>       0.00000000       0.33333333       0.37500000 </v>
    <v>       0.08333333       0.33333333       0.37500000 </v>
    <v>       0.16666667       0.33333333       0.37500000 </v>
    <v>       0.25000000       0.33333333       0.37500000 </v>
    <v>       0.33333333       0.33333333       0.37500000 </v>
    <v>       0.00000000       0.41666667       0.37500000 </v>
    <v>       0.08333333       0.41666667       0.37500000 </v>
    <v>       0.16666667       0.41666667       0.37500000 </v>
    <v>       0.00000000       0.50000000       0.37500000 </v>
    <v>       0.00000000       0.00000000       0.50000000 </v>
    <v>       0.08333333      -0.00000000       0.50000000 </v>
    <v>       0.16666667      -0.00000000       0.50000000 </v>
    <v>       0.25000000       0.00000000       0.50000000 </v>
    <v>       0.33333333       0.00000000       0.50000000 </v>
    <v>       0.41666667       0.00000000       0.50000000 </v>
    <v>       0.50000000       0.00000000       0.50000000 </v>
    <v>       0.00000000       0.08333333       0.50000000 </v>
    <v>       0.08333333       0.08333333       0.50000000 </v>
    <v>       0.16666667       0.08333333       0.50000000 </v>
    <v>       0.25000000       0.08333333       0.50000000 </v>
    <v>       0.33333333       0.08333333       0.50000000 </v>
    <v>       0.41666667       0.08333333       0.50000000 </v>
    <v>       0.50000000       0.08333333       0.50000000 </v>
    <v>      -0.41666667       0.08333333       0.50000000 </v>
    <v>      -0.33333333       0.08333333       0.50000000 </v>
    <v>      -0.25000000       0.08333333       0.50000000 </v>
    <v>      -0.16666667       0.08333333       0.50000000 </v>
    <v>       0.00000000       0.16666667       0.50000000 </v>
    <v>       0.08333333       0.16666667       0.50000000 </v>
    <v>       0.16666667       0.16666667       0.50000000 </v>
    <v>       0.25000000       0.16666667       0.50000000 </v>
    <v>       0.33333333       0.16666667       0.50000000 </v>
    <v>       0.41666667       0.16666667       0.50000000 </v>
    <v>       0.50000000       0.16666667       0.50000000 </v>
    <v>      -0.41666667       0.16666667       0.50000000 </v>
    <v>      -0.33333333       0.16666667       0.50000000 </v>
    <v>       0.00000000       0.25000000       0.50000000 </v>
    <v>       0.08333333       0.25000000       0.50000000 </v>
    <v>       0.16666667       0.25000000       0.50000000 </v>
    <v>       0.25000000       0.25000000       0.50000000 </v>
    <v>       0.33333333       0.25000000       0.50000000 </v>
    <v>       0.41666667       0.25000000       0.50000000 </v>
    <v>       0.50000000       0.25000000       0.50000000 </v>
    <v>       0.00000000       0.33333333       0.50000000 </v>
    <v>       0.08333333       0.33333333       0.50000000 </v>
    <v>       0.16666667       0.33333333       0.50000000 </v>
    <v>       0.25000000       0.33333333       0.50000000 </v>
    <v>       0.33333333       0.33333333       0.50000000 </v>
    <v>       0.00000000       0.41666667       0.50000000 </v>
    <v>       0.08333333       0.41666667       0.50000000 </v>
    <v>       0.16666667       0.41666667       0.50000000 </v>
    <v>       0.00000000       0.50000000       0.50000000 </v>
   </varray>
   <varray name="weights" >
    <v>       0.00086806 </v>
    <v>       0.00347222 </v>
    <v>       0.00347222 </v>
    <v>       0.00347222 </v>
    <v>       0.00347222 </v>
    <v>       0.00347222 </v>
    <v>       0.00173611 </v>
    <v>       0.00173611 </v>
    <v>       0.00347222 </v>
    <v>       0.00347222 </v>
    <v>       0.00347222 </v>
    <v>       0.00347222 </v>
    <v>       0.00347222 </v>
    <v>       0.00347222 </v>
    <v>       0.00347222 </v>
    <v>       0.00347222 </v>
    <v>       0.00347222 </v>
    <v>       0.00173611 </v>
    <v>       0.00173611 </v>
    <v>       0.00347222 </v>
    <v>       0.00347222 </v>
    <v>       0.00347222 </v>
    <v>       0.00347222 </v>
    <v>       0.00347222 </v>
    <v>       0.00347222 </v>
    <v>       0.00347222 </v>
    <v>       0.00173611 </v>
    <v>       0.00173611 </v>
    <v>       0.00347222 </v>
    <v>       0.00347222 </v>
    <v>       0.00347222 </v>
    <v>       0.00347222 </v>
    <v>       0.00347222 </v>
    <v>       0.00173611 </v>
    <v>       0.00173611 </v>
    <v>       0.00347222 </v>
    <v>       0.00347222 </v>
    <v>       0.00347222 </v>
    <v>       0.00173611 </v>
    <v>       0.00173611 </v>
    <v>       0.00347222 </v>
    <v>       0.00173611 </v>
    <v>       0.00086806 </v>
    <v>       0.00173611 </v>
    <v>       0.00694444 </v>
    <v>       0.00694444 </v>
    <v>       0.00694444 </v>
    <v>       0.00694444 </v>
    <v>       0.00694444 </v>
    <v>       0.00347222 </v>
    <v>       0.00347222 </v>
    <v>       0.00694444 </v>
    <v>       0.00694444 </v>
    <v>       0.00694444 </v>
    <v>       0.00694444 </v>
    <v>       0.00694444 </v>
    <v>       0.00694444 </v>
    <v>       0.00694444 </v>
    <v>       0.00694444 </v>
    <v>       0.00694444 </v>
    <v>       0.00347222 </v>
    <v>       0.00347222 </v>
    <v>       0.00694444 </v>
    <v>       0.00694444 </v>
    <v>       0.00694444 </v>
    <v>       0.00694444 </v>
    <v>       0.00694444 </v>
    <v>       0.00694444 </v>
    <v>       0.00694444 </v>
    <v>       0.00347222 </v>
    <v>       0.00347222 </v>
    <v>       0.00694444 </v>
    <v>       0.00694444 </v>
    <v>       0.00694444 </v>
    <v>       0.00694444 </v>
    <v>       0.00694444 </v>
    <v>       0.00347222 </v>
    <v>       0.00347222 </v>
    <v>       0.00694444 </v>
    <v>       0.00694444 </v>
    <v>       0.00694444 </v>
    <v>       0.00347222 </v>
    <v>       0.00347222 </v>
    <v>       0.00694444 </v>
    <v>       0.00347222 </v>
    <v>       0.00173611 </v>
    <v>       0.00173611 </v>
    <v>       0.00694444 </v>
    <v>       0.00694444 </v>
    <v>       0.00694444 </v>
    <v>       0.00694444 </v>
    <v>       0.00694444 </v>
    <v>       0.00347222 </v>
    <v>       0.00347222 </v>
    <v>       0.00694444 </v>
    <v>       0.00694444 </v>
    <v>       0.00694444 </v>
    <v>       0.00694444 </v>
    <v>       0.00694444 </v>
    <v>       0.00694444 </v>
    <v>       0.00694444 </v>
    <v>       0.00694444 </v>
    <v>       0.00694444 </v>
    <v>       0.00347222 </v>
    <v>       0.00347222 </v>
    <v>       0.00694444 </v>
    <v>       0.00694444 </v>
    <v>       0.00694444 </v>
    <v>       0.00694444 </v>
    <v>       0.00694444 </v>
    <v>       0.00694444 </v>
    <v>       0.00694444 </v>
    <v>       0.00347222 </v>
    <v>       0.00347222 </v>
    <v>       0.00694444 </v>
    <v>       0.00694444 </v>
    <v>       0.00694444 </v>
    <v>       0.00694444 </v>
    <v>       0.00694444 </v>
    <v>       0.00347222 </v>
    <v>       0.00347222 </v>
    <v>       0.00694444 </v>
    <v>       0.00694444 </v>
    <v>       0.00694444 </v>
    <v>       0.00347222 </v>
    <v>       0.00347222 </v>
    <v>       0.00694444 </v>
    <v>       0.00347222 </v>
    <v>       0.00173611 </v>
    <v>       0.00173611 </v>
    <v>       0.00694444 </v>
    <v>       0.00694444 </v>
    <v>       0.00694444 </v>
    <v>       0.00694444 </v>
    <v>       0.00694444 </v>
    <v>       0.00347222 </v>
    <v>       0.00347222 </v>
    <v>       0.00694444 </v>
    <v>       0.00694444 </v>
    <v>       0.00694444 </v>
    <v>       0.00694444 </v>
    <v>       0.00694444 </v>
    <v>       0.00694444 </v>
    <v>       0.00694444 </v>
    <v>       0.00694444 </v>
    <v>       0.00694444 </v>
    <v>       0.00347222 </v>
    <v>       0.00347222 </v>
    <v>       0.00694444 </v>
    <v>       0.00694444 </v>
    <v>       0.00694444 </v>
    <v>       0.00694444 </v>
    <v>       0.00694444 </v>
    <v>       0.00694444 </v>
    <v>       0.00694444 </v>
    <v>       0.00347222 </v>
    <v>       0.00347222 </v>
    <v>       0.00694444 </v>
    <v>       0.00694444 </v>
    <v>       0.00694444 </v>
    <v>       0.00694444 </v>
    <v>       0.00694444 </v>
    <v>       0.00347222 </v>
    <v>       0.00347222 </v>
    <v>       0.00694444 </v>
    <v>       0.00694444 </v>
    <v>       0.00694444 </v>
    <v>       0.00347222 </v>
    <v>       0.00347222 </v>
    <v>       0.00694444 </v>
    <v>       0.00347222 </v>
    <v>       0.00173611 </v>
    <v>       0.00086806 </v>
    <v>       0.00347222 </v>
    <v>       0.00347222 </v>
    <v>       0.00347222 </v>
    <v>       0.00347222 </v>
    <v>       0.00347222 </v>
    <v>       0.00173611 </v>
    <v>       0.00173611 </v>
    <v>       0.00347222 </v>
    <v>       0.00347222 </v>
    <v>       0.00347222 </v>
    <v>       0.00347222 </v>
    <v>       0.00347222 </v>
    <v>       0.00347222 </v>
    <v>       0.00347222 </v>
    <v>       0.00347222 </v>
    <v>       0.00347222 </v>
    <v>       0.00173611 </v>
    <v>       0.00173611 </v>
    <v>       0.00347222 </v>
    <v>       0.00347222 </v>
    <v>       0.00347222 </v>
    <v>       0.00347222 </v>
    <v>       0.00347222 </v>
    <v>       0.00347222 </v>
    <v>       0.00347222 </v>
    <v>       0.00173611 </v>
    <v>       0.00173611 </v>
    <v>       0.00347222 </v>
    <v>       0.00347222 </v>
    <v>       0.00347222 </v>
    <v>       0.00347222 </v>
    <v>       0.00347222 </v>
    <v>       0.00173611 </v>
    <v>       0.00173611 </v>
    <v>       0.00347222 </v>
    <v>       0.00347222 </v>
    <v>       0.00347222 </v>
    <v>       0.00173611 </v>
    <v>       0.00173611 </v>
    <v>       0.00347222 </v>
    <v>       0.00173611 </v>
    <v>       0.00086806 </v>
   </varray>
  </kpoints>
  <time name="totalsc">   76.97   79.88</time>
 </calculation>
 <calculation>
  <scstep>
   <time name="dav">   15.37   16.10</time>
   <time name="total">   15.59   16.31</time>
   <energy>
    <i name="alphaZ">     19.63650939 </i>
    <i name="ewald">   -508.25941777 </i>
    <i name="hartreedc">    -23.78233848 </i>
    <i name="XCdc">    -74.78118121 </i>
    <i name="pawpsdc">    713.90672784 </i>
    <i name="pawaedc">   -607.36006728 </i>
    <i name="eentropy">     -0.00029428 </i>
    <i name="bandstr">     15.39854974 </i>
    <i name="atom">    447.44913212 </i>
    <i name="e_fr_energy">    -17.79237992 </i>
    <i name="e_wo_entrp">    -17.79208564 </i>
    <i name="e_0_energy">    -17.79223278 </i>
   </energy>
  </scstep>
  <scstep>
   <time name="dav">    6.78    6.86</time>
   <time name="total">    7.01    7.09</time>
   <energy>
    <i name="e_fr_energy">    -17.78753544 </i>
    <i name="e_wo_entrp">    -17.78727879 </i>
    <i name="e_0_energy">    -17.78740712 </i>
   </energy>
  </scstep>
  <scstep>
   <time name="dav">   16.61   16.70</time>
   <time name="total">   16.85   16.97</time>
   <energy>
    <i name="e_fr_energy">    -17.78574650 </i>
    <i name="e_wo_entrp">    -17.78551732 </i>
    <i name="e_0_energy">    -17.78563191 </i>
   </energy>
  </scstep>
  <scstep>
   <time name="dav">    8.28    8.70</time>
   <time name="total">    8.48    8.92</time>
   <energy>
    <i name="e_fr_energy">    -17.78567838 </i>
    <i name="e_wo_entrp">    -17.78544528 </i>
    <i name="e_0_energy">    -17.78556183 </i>
   </energy>
  </scstep>
  <scstep>
   <time name="dav">   16.90   17.37</time>
   <time name="total">   17.11   17.59</time>
   <energy>
    <i name="e_fr_energy">    -17.78566805 </i>
    <i name="e_wo_entrp">    -17.78543309 </i>
    <i name="e_0_energy">    -17.78555057 </i>
   </energy>
  </scstep>
  <scstep>
   <time name="dav">    4.96    5.20</time>
   <time name="total">    4.97    5.21</time>
   <energy>
    <i name="alphaZ">     19.63650939 </i>
    <i name="ewald">   -508.25941777 </i>
    <i name="hartreedc">    -23.29968140 </i>
    <i name="XCdc">    -74.74759497 </i>
    <i name="pawpsdc">    726.60564766 </i>
    <i name="pawaedc">   -620.07385895 </i>
    <i name="eentropy">     -0.00023480 </i>
    <i name="bandstr">     14.90383066 </i>
    <i name="atom">    447.44913212 </i>
    <i name="e_fr_energy">    -17.78566807 </i>
    <i name="e_wo_entrp">    -17.78543327 </i>
    <i name="e_0_energy">    -17.78555067 </i>
   </energy>
  </scstep>
  <structure>
   <crystal>
    <varray name="basis" >
[...]
       <r>   23.1932    0.0000 </r>
       <r>   24.3807    0.0000 </r>
       <r>   24.4607    0.0000 </r>
       <r>   25.5880    0.0000 </r>
       <r>   25.6231    0.0000 </r>
      </set>
      <set comment="kpoint 93">
       <r>   -4.4540    1.0000 </r>
       <r>   -4.4088    1.0000 </r>
       <r>    0.1960    1.0000 </r>
       <r>    0.2084    1.0000 </r>
       <r>    2.0340    1.0000 </r>
       <r>    2.0435    1.0000 </r>
       <r>    5.3986    1.0000 </r>
       <r>    5.4073    1.0000 </r>
       <r>    8.6064    0.0000 </r>
       <r>    8.6659    0.0000 </r>
       <r>   10.0010    0.0000 </r>
       <r>   10.0081    0.0000 </r>
       <r>   11.7849    0.0000 </r>
       <r>   11.8411    0.0000 </r>
       <r>   12.9682    0.0000 </r>
       <r>   13.0294    0.0000 </r>
       <r>   17.3412    0.0000 </r>
       <r>   17.3828    0.0000 </r>
       <r>   17.6945    0.0000 </r>
       <r>   17.7517    0.0000 </r>
       <r>   20.3654    0.0000 </r>
       <r>   20.4226    0.0000 </r>
       <r>   20.8996    0.0000 </r>
       <r>   20.9438    0.0000 </r>
       <r>   22.2086    0.0000 </r>
       <r>   22.2398    0.0000 </r>
       <r>   23.5062    0.0000 </r>
       <r>   23.5582    0.0000 </r>
       <r>   25.3463    0.0000 </r>
       <r>   25.4553    0.0000 </r>
       <r>   25.8353    0.0000 </r>
       <r>   25.8689    0.0000 </r>
      </set>
      <set comment="kpoint 94">
       <r>   -4.1890    1.0000 </r>
       <r>   -4.1668    1.0000 </r>
       <r>   -0.0904    1.0000 </r>
       <r>   -0.0505    1.0000 </r>
       <r>    1.6057    1.0000 </r>
       <r>    1.6307    1.0000 </r>
       <r>    5.7957    1.0000 </r>
       <r>    5.8016    1.0000 </r>
       <r>    8.2754    0.0000 </r>
       <r>    8.3225    0.0000 </r>
       <r>    9.6804    0.0000 </r>
       <r>    9.6858    0.0000 </r>
       <r>   11.9252    0.0000 </r>
       <r>   11.9884    0.0000 </r>
       <r>   14.0850    0.0000 </r>
       <r>   14.1525    0.0000 </r>
       <r>   16.1159    0.0000 </r>
       <r>   16.1884    0.0000 </r>
       <r>   17.9278    0.0000 </r>
       <r>   17.9696    0.0000 </r>
       <r>   20.6955    0.0000 </r>
       <r>   20.7250    0.0000 </r>
       <r>   22.2075    0.0000 </r>
       <r>   22.2204    0.0000 </r>
       <r>   22.6985    0.0000 </r>
       <r>   22.7054    0.0000 </r>
       <r>   24.2125    0.0000 </r>
       <r>   24.2227    0.0000 </r>
       <r>   25.1792    0.0000 </r>
       <r>   25.2241    0.0000 </r>
       <r>   25.3418    0.0000 </r>
       <r>   25.4215    0.0000 </r>
      </set>
      <set comment="kpoint 95">
       <r>   -4.0840    1.0000 </r>
       <r>   -4.0832    1.0000 </r>
       <r>   -0.0476    1.0000 </r>
       <r>    0.0122    1.0000 </r>
       <r>    1.2466    1.0000 </r>
       <r>    1.2477    1.0000 </r>
       <r>    5.9950    1.0000 </r>
       <r>    5.9959    1.0000 </r>
       <r>    8.4183    0.0000 </r>
       <r>    8.4690    0.0000 </r>
       <r>    9.1862    0.0000 </r>
       <r>    9.1872    0.0000 </r>
       <r>   12.8558    0.0000 </r>
       <r>   12.9233    0.0000 </r>
       <r>   14.3183    0.0000 </r>
       <r>   14.3196    0.0000 </r>
       <r>   14.7661    0.0000 </r>
       <r>   14.7674    0.0000 </r>
       <r>   18.4799    0.0000 </r>
       <r>   18.4801    0.0000 </r>
       <r>   20.9538    0.0000 </r>
       <r>   20.9549    0.0000 </r>
       <r>   21.8880    0.0000 </r>
       <r>   21.9431    0.0000 </r>
       <r>   23.7352    0.0000 </r>
       <r>   23.7368    0.0000 </r>
       <r>   23.8734    0.0000 </r>
       <r>   23.8935    0.0000 </r>
       <r>   25.2280    0.0000 </r>
       <r>   25.2283    0.0000 </r>
       <r>   26.4087    0.0000 </r>
       <r>   26.4170    0.0000 </r>
      </set>
     </set>
    </set>
   </array>
  </eigenvalues>
  <separator name="orbital magnetization" >
   <v name="MAGDIPOLOUT">      0.00000000      0.00000000      0.00000000</v>
  </separator>
  <dos>
   <i name="efermi">      6.29605838 </i>
   <total>
    <array>
     <dimension dim="1">gridpoints</dimension>
     <dimension dim="2">spin</dimension>
     <field>energy</field>
     <field>total</field>
     <field>integrated</field>
     <set>
      <set comment="spin 1">
       <r>    -8.7983     0.0000     0.0000 </r>
       <r>    -8.6593     0.0000     0.0000 </r>
       <r>    -8.5203     0.0000     0.0000 </r>
       <r>    -8.3813     0.0000     0.0000 </r>
       <r>    -8.2423     0.0000     0.0000 </r>
       <r>    -8.1033     0.0000     0.0000 </r>
       <r>    -7.9644     0.0000     0.0000 </r>
       <r>    -7.8254     0.0000     0.0000 </r>
       <r>    -7.6864     0.0000     0.0000 </r>
       <r>    -7.5474     0.0000     0.0000 </r>
       <r>    -7.4084     0.0000     0.0000 </r>
       <r>    -7.2694     0.0000     0.0000 </r>
       <r>    -7.1304     0.0000     0.0000 </r>
       <r>    -6.9914     0.0000     0.0000 </r>
       <r>    -6.8524     0.0225     0.0031 </r>
       <r>    -6.7134     0.2401     0.0365 </r>
       <r>    -6.5745     0.4448     0.0983 </r>
       <r>    -6.4355     0.2823     0.1384 </r>
       <r>    -6.2965     0.6309     0.2261 </r>
       <r>    -6.1575     0.4304     0.2860 </r>
       <r>    -6.0185     0.5966     0.3704 </r>
       <r>    -5.8795     0.7952     0.4809 </r>
       <r>    -5.7405     0.8961     0.6056 </r>
       <r>    -5.6015     0.7017     0.7041 </r>
       <r>    -5.4625     0.9582     0.8378 </r>
       <r>    -5.3236     1.0355     0.9825 </r>
       <r>    -5.1846     1.0190     1.1242 </r>
       <r>    -5.0456     1.5171     1.3350 </r>
       <r>    -4.9066     1.2521     1.5101 </r>
       <r>    -4.7676     1.7773     1.7586 </r>
       <r>    -4.6286     1.9615     2.0321 </r>
       <r>    -4.4896     1.6591     2.2627 </r>
       <r>    -4.3506     3.0811     2.6914 </r>
       <r>    -4.2116     2.0242     2.9747 </r>
       <r>    -4.0726     3.8526     3.5106 </r>
       <r>    -3.9337     2.8872     3.9134 </r>
       <r>    -3.7947     0.6015     4.0000 </r>
       <r>    -3.6557     0.0000     4.0000 </r>
       <r>    -3.5167     0.0000     4.0000 </r>
       <r>    -3.3777     0.0000     4.0000 </r>
       <r>    -3.2387     0.0000     4.0000 </r>
       <r>    -3.0997     0.0000     4.0000 </r>
       <r>    -2.9607     0.0000     4.0000 </r>
       <r>    -2.8217     0.0000     4.0000 </r>
       <r>    -2.6828     0.0000     4.0000 </r>
       <r>    -2.5438     0.0000     4.0000 </r>
       <r>    -2.4048     0.0000     4.0000 </r>
       <r>    -2.2658     0.0000     4.0000 </r>
       <r>    -2.1268     0.0000     4.0000 </r>
       <r>    -1.9878     0.0000     4.0000 </r>
       <r>    -1.8488     0.0000     4.0000 </r>
       <r>    -1.7098     0.0000     4.0000 </r>
       <r>    -1.5708     0.0000     4.0000 </r>
       <r>    -1.4318     0.0000     4.0000 </r>
       <r>    -1.2929     0.0000     4.0000 </r>
       <r>    -1.1539     0.0000     4.0000 </r>
       <r>    -1.0149     0.0096     4.0013 </r>
       <r>    -0.8759     0.0654     4.0104 </r>
       <r>    -0.7369     0.4864     4.0780 </r>
       <r>    -0.5979     0.8343     4.1964 </r>
       <r>    -0.4589     1.1210     4.3555 </r>
       <r>    -0.3199     2.4177     4.6923 </r>
       <r>    -0.1809     1.0097     4.8347 </r>
       <r>    -0.0420     1.3197     5.0181 </r>
       <r>     0.0970     1.6218     5.2437 </r>
       <r>     0.2360     0.9227     5.3730 </r>
       <r>     0.3750     2.1165     5.6675 </r>
       <r>     0.5140     1.7020     5.9051 </r>
       <r>     0.6530     1.5271     6.1193 </r>
       <r>     0.7920     1.3400     6.3056 </r>
       <r>     0.9310     1.5033     6.5146 </r>
       <r>     1.0700     1.1009     6.6676 </r>
       <r>     1.2090     2.1388     6.9649 </r>
       <r>     1.3479     0.5773     7.0455 </r>
       <r>     1.4869     2.2535     7.3588 </r>
       <r>     1.6259     1.0629     7.5073 </r>
       <r>     1.7649     0.8642     7.6275 </r>
       <r>     1.9039     0.8649     7.7479 </r>
       <r>     2.0429     1.5841     7.9681 </r>
       <r>     2.1819     0.7769     8.0780 </r>
       <r>     2.3209     2.8162     8.4694 </r>
       <r>     2.4599     2.3861     8.8053 </r>
       <r>     2.5988     1.6253     9.0331 </r>
       <r>     2.7378     0.9893     9.1712 </r>
       <r>     2.8768     1.0871     9.3225 </r>
       <r>     3.0158     1.4848     9.5312 </r>
       <r>     3.1548     1.7242     9.7713 </r>
       <r>     3.2938     2.9502    10.1820 </r>
       <r>     3.4328     1.1761    10.3472 </r>
       <r>     3.5718     2.2250    10.6589 </r>
       <r>     3.7108     2.0729    10.9472 </r>
       <r>     3.8498     1.8748    11.2083 </r>
       <r>     3.9887     2.1908    11.5153 </r>
       <r>     4.1277     1.7197    11.7551 </r>
       <r>     4.2667     2.5816    12.1147 </r>
       <r>     4.4057     1.6665    12.3501 </r>
       <r>     4.5447     1.8977    12.6150 </r>
       <r>     4.6837     1.8803    12.8764 </r>
       <r>     4.8227     2.4784    13.2209 </r>
       <r>     4.9617     2.1046    13.5135 </r>
       <r>     5.1007     2.4215    13.8504 </r>
       <r>     5.2396     1.2277    14.0232 </r>
       <r>     5.3786     2.7577    14.4066 </r>
       <r>     5.5176     2.5916    14.7680 </r>
       <r>     5.6566     1.8547    15.0258 </r>
       <r>     5.7956     2.5549    15.3809 </r>
       <r>     5.9346     1.8471    15.6411 </r>
       <r>     6.0736     1.2183    15.8111 </r>
       <r>     6.2126     0.8461    15.9287 </r>
       <r>     6.3516     0.9289    16.0578 </r>
       <r>     6.4906     0.7900    16.1677 </r>
       <r>     6.6295     0.7082    16.2662 </r>
       <r>     6.7685     0.3163    16.3101 </r>
       <r>     6.9075     0.7288    16.4115 </r>
       <r>     7.0465     0.4622    16.4757 </r>
       <r>     7.1855     1.0839    16.6265 </r>
       <r>     7.3245     0.5311    16.7023 </r>
       <r>     7.4635     1.4231    16.9002 </r>
       <r>     7.6025     2.0180    17.1806 </r>
       <r>     7.7415     0.8158    17.2945 </r>
       <r>     7.8804     1.1010    17.4484 </r>
       <r>     8.0194     0.6733    17.5420 </r>
       <r>     8.1584     1.2552    17.7166 </r>
       <r>     8.2974     1.4984    17.9251 </r>
       <r>     8.4364     1.7215    18.1656 </r>
       <r>     8.5754     1.4164    18.3637 </r>
       <r>     8.7144     1.5366    18.5774 </r>
       <r>     8.8534     1.4141    18.7743 </r>
       <r>     8.9924     1.3943    18.9681 </r>
       <r>     9.1314     2.0503    19.2538 </r>
       <r>     9.2703     1.4264    19.4522 </r>
       <r>     9.4093     1.7980    19.7021 </r>
       <r>     9.5483     1.8862    19.9642 </r>
       <r>     9.6873     3.3070    20.4243 </r>
       <r>     9.8263     2.3460    20.7515 </r>
       <r>     9.9653     1.5730    20.9703 </r>
       <r>    10.1043     2.5125    21.3209 </r>
       <r>    10.2433     3.2439    21.7720 </r>
       <r>    10.3823     1.3644    21.9619 </r>
       <r>    10.5212     2.4580    22.3043 </r>
       <r>    10.6602     3.6236    22.8080 </r>
       <r>    10.7992     2.8757    23.2084 </r>
       <r>    10.9382     3.0251    23.6289 </r>
       <r>    11.0772     1.5243    23.8435 </r>
       <r>    11.2162     1.8459    24.1003 </r>
       <r>    11.3552     3.2413    24.5512 </r>
       <r>    11.4942     1.9639    24.8257 </r>
       <r>    11.6332     2.3754    25.1589 </r>
       <r>    11.7722     1.0653    25.3105 </r>
       <r>    11.9111     2.8152    25.7017 </r>
       <r>    12.0501     3.4053    26.1751 </r>
       <r>    12.1891     1.7976    26.4284 </r>
       <r>    12.3281     2.0217    26.7133 </r>
       <r>    12.4671     1.7534    26.9586 </r>
       <r>    12.6061     2.0394    27.2431 </r>
       <r>    12.7451     1.4445    27.4445 </r>
       <r>    12.8841     1.2380    27.6170 </r>
       <r>    13.0231     2.5609    27.9731 </r>
       <r>    13.1620     2.9861    28.3898 </r>
       <r>    13.3010     2.7828    28.7769 </r>
       <r>    13.4400     3.2527    29.2309 </r>
       <r>    13.5790     1.0743    29.3809 </r>
       <r>    13.7180     2.5231    29.7319 </r>
       <r>    13.8570     3.0830    30.1605 </r>
       <r>    13.9960     1.7722    30.4112 </r>
       <r>    14.1350     2.4302    30.7499 </r>
       <r>    14.2740     2.6733    31.1226 </r>
       <r>    14.4130     3.0909    31.5538 </r>
       <r>    14.5519     1.8822    31.8156 </r>
       <r>    14.6909     2.4553    32.1570 </r>
       <r>    14.8299     1.8735    32.4174 </r>
       <r>    14.9689     1.2253    32.5880 </r>
       <r>    15.1079     1.5216    32.7997 </r>
       <r>    15.2469     2.8234    33.1921 </r>
       <r>    15.3859     1.8738    33.4546 </r>
       <r>    15.5249     2.8225    33.8478 </r>
       <r>    15.6639     3.3600    34.3186 </r>
       <r>    15.8028     4.0452    34.8810 </r>
       <r>    15.9418     0.6518    34.9728 </r>
       <r>    16.0808     3.3396    35.4381 </r>
       <r>    16.2198     3.0215    35.8592 </r>
       <r>    16.3588     1.3650    36.0497 </r>
       <r>    16.4978     1.0335    36.1938 </r>
       <r>    16.6368     3.2423    36.6444 </r>
       <r>    16.7758     2.9258    37.0515 </r>
       <r>    16.9148     3.1050    37.4833 </r>
       <r>    17.0538     3.6535    37.9913 </r>
       <r>    17.1927     1.7213    38.2327 </r>
       <r>    17.3317     3.5696    38.7298 </r>
       <r>    17.4707     2.6101    39.0942 </r>
       <r>    17.6097     2.6799    39.4668 </r>
       <r>    17.7487     3.1984    39.9113 </r>
       <r>    17.8877     1.3807    40.1076 </r>
       <r>    18.0267     3.3695    40.5761 </r>
       <r>    18.1657     2.8650    40.9772 </r>
       <r>    18.3047     2.4108    41.3149 </r>
       <r>    18.4436     1.8724    41.5752 </r>
       <r>    18.5826     2.6968    41.9503 </r>
       <r>    18.7216     1.9669    42.2253 </r>
       <r>    18.8606     2.4135    42.5608 </r>
       <r>    18.9996     1.8369    42.8175 </r>
       <r>    19.1386     1.4589    43.0204 </r>
       <r>    19.2776     3.1214    43.4556 </r>
       <r>    19.4166     2.4200    43.7935 </r>
       <r>    19.5556     1.6686    44.0258 </r>
       <r>    19.6946     1.7966    44.2760 </r>
       <r>    19.8335     2.9286    44.6840 </r>
       <r>    19.9725     2.1010    44.9762 </r>
       <r>    20.1115     2.2636    45.2910 </r>
       <r>    20.2505     3.3589    45.7586 </r>
       <r>    20.3895     3.8592    46.2977 </r>
       <r>    20.5285     2.8032    46.6901 </r>
       <r>    20.6675     2.4204    47.0272 </r>
       <r>    20.8065     3.0152    47.4464 </r>
       <r>    20.9455     2.7294    47.8274 </r>
       <r>    21.0844     1.4398    48.0280 </r>
       <r>    21.2234     2.7770    48.4144 </r>
       <r>    21.3624     3.4575    48.8983 </r>
       <r>    21.5014     3.6579    49.4107 </r>
       <r>    21.6404     2.7763    49.7969 </r>
       <r>    21.7794     2.5901    50.1583 </r>
       <r>    21.9184     2.4478    50.4985 </r>
       <r>    22.0574     1.5715    50.7188 </r>
       <r>    22.1964     3.3993    51.1914 </r>
       <r>    22.3354     3.1803    51.6342 </r>
       <r>    22.4743     3.5286    52.1255 </r>
       <r>    22.6133     3.1421    52.5632 </r>
       <r>    22.7523     3.6486    53.0703 </r>
       <r>    22.8913     2.7527    53.4563 </r>
       <r>    23.0303     2.7133    53.8335 </r>
       <r>    23.1693     3.1357    54.2701 </r>
       <r>    23.3083     3.0087    54.6903 </r>
       <r>    23.4473     3.2396    55.1417 </r>
       <r>    23.5863     2.6821    55.5146 </r>
       <r>    23.7252     2.4532    55.8560 </r>
       <r>    23.8642     2.3020    56.1781 </r>
       <r>    24.0032     2.4729    56.5236 </r>
       <r>    24.1422     2.5406    56.8770 </r>
       <r>    24.2812     2.7137    57.2542 </r>
       <r>    24.4202     2.2829    57.5719 </r>
       <r>    24.5592     1.7752    57.8187 </r>
       <r>    24.6982     2.6185    58.1827 </r>
       <r>    24.8372     3.7479    58.7039 </r>
       <r>    24.9762     2.8576    59.1013 </r>
       <r>    25.1151     2.0831    59.3919 </r>
       <r>    25.2541     2.7166    59.7699 </r>
       <r>    25.3931     2.3511    60.0980 </r>
       <r>    25.5321     4.2634    60.6911 </r>
       <r>    25.6711     3.4203    61.1667 </r>
       <r>    25.8101     3.7324    61.6855 </r>
       <r>    25.9491     2.9461    62.0965 </r>
       <r>    26.0881     3.0076    62.5146 </r>
       <r>    26.2271     1.9178    62.7811 </r>
       <r>    26.3660     1.3997    62.9763 </r>
       <r>    26.5050     1.3759    63.1680 </r>
       <r>    26.6440     2.2309    63.4782 </r>
       <r>    26.7830     0.3626    63.5296 </r>
       <r>    26.9220     0.2946    63.5705 </r>
       <r>    27.0610     0.7338    63.6725 </r>
       <r>    27.2000     0.2624    63.7090 </r>
       <r>    27.3390     0.4847    63.7764 </r>
       <r>    27.4780     0.1370    63.7968 </r>
       <r>    27.6170     0.3386    63.8439 </r>
       <r>    27.7559     0.1249    63.8614 </r>
       <r>    27.8949     0.0594    63.8697 </r>
       <r>    28.0339     0.1133    63.8854 </r>
       <r>    28.1729     0.0597    63.8937 </r>
       <r>    28.3119     0.1312    63.9120 </r>
       <r>    28.4509     0.2293    63.9438 </r>
       <r>    28.5899     0.0295    63.9479 </r>
       <r>    28.7289     0.1496    63.9687 </r>
       <r>    28.8679     0.0000    63.9688 </r>
       <r>    29.0068     0.0000    63.9688 </r>
       <r>    29.1458     0.0294    63.9728 </r>
       <r>    29.2848     0.0206    63.9757 </r>
       <r>    29.4238     0.0000    63.9757 </r>
       <r>    29.5628     0.0000    63.9757 </r>
       <r>    29.7018     0.0000    63.9757 </r>
       <r>    29.8408     0.0000    63.9757 </r>
       <r>    29.9798     0.0010    63.9758 </r>
       <r>    30.1188     0.1489    63.9965 </r>
       <r>    30.2578     0.0000    63.9965 </r>
       <r>    30.3967     0.0000    63.9965 </r>
       <r>    30.5357     0.0000    63.9965 </r>
       <r>    30.6747     0.0000    63.9965 </r>
       <r>    30.8137     0.0000    63.9965 </r>
       <r>    30.9527     0.0010    63.9967 </r>
       <r>    31.0917     0.0239    64.0000 </r>
       <r>    31.2307     0.0000    64.0000 </r>
       <r>    31.3697     0.0000    64.0000 </r>
       <r>    31.5087     0.0000    64.0000 </r>
       <r>    31.6476     0.0000    64.0000 </r>
       <r>    31.7866     0.0000    64.0000 </r>
       <r>    31.9256     0.0000    64.0000 </r>
       <r>    32.0646     0.0000    64.0000 </r>
       <r>    32.2036     0.0000    64.0000 </r>
       <r>    32.3426     0.0000    64.0000 </r>
       <r>    32.4816     0.0000    64.0000 </r>
       <r>    32.6206     0.0000    64.0000 </r>
       <r>    32.7596     0.0000    64.0000 </r>
       <r>    32.8986     0.0000    64.0000 </r>
      </set>
     </set>
    </array>
   </total>
  </dos>
 </calculation>
 <structure name="finalpos" >
  <crystal>
   <varray name="basis" >
    <v>       3.79777062       0.00000000       0.00000000 </v>
    <v>      -1.89888531       3.28896583       0.00000000 </v>
    <v>       0.00000000       0.00000000       5.95456429 </v>
   </varray>
   <i name="volume">     74.37690135 </i>
   <varray name="rec_basis" >
    <v>       0.26331237       0.15202347       0.00000000 </v>
    <v>       0.00000000       0.30404694       0.00000000 </v>
    <v>       0.00000000       0.00000000       0.16793840 </v>
   </varray>
  </crystal>
  <varray name="positions" >
   <v>       0.00000000       0.00000000       0.00000000 </v>
   <v>       0.00000000       0.00000000       0.50000000 </v>
   <v>       0.33333334       0.66666669       0.24496185 </v>
   <v>       0.66666663       0.33333331       0.75000000 </v>
  </varray>
 </structure>
</modeling>
