   12   12    1    2
  0.1176459E+02  0.3830987E-09  0.3830987E-09  0.9619146E-09  0.5000000E-15
  1.000000000000000E-004
  CAR 
 TiO2                                    
     64    220     56
 
  0.0000000E+00  0.0000000E+00  0.0000000E+00  0.4545455E-02
    1      -17.101271    -17.101315   1.000000   1.000000
    2      -16.612405    -16.612458   1.000000   1.000000
    3      -16.612405    -16.612458   1.000000   1.000000
    4      -16.103538    -16.103603   1.000000   1.000000
    5      -16.088642    -16.088708   1.000000   1.000000
    6      -15.881819    -15.881888   1.000000   1.000000
    7      -15.881819    -15.881888   1.000000   1.000000
    8      -15.640278    -15.640350   1.000000   1.000000
    9       -3.382637     -3.382659   1.000000   1.000000
   10       -3.319780     -3.319792   1.000000   1.000000
   11       -3.319780     -3.319792   1.000000   1.000000
   12       -3.235561     -3.235574   1.000000   1.000000
   13       -3.235561     -3.235574   1.000000   1.000000
   14       -3.146569     -3.146587   1.000000   1.000000
   15       -3.146569     -3.146587   1.000000   1.000000
   16       -2.883285     -2.883291   1.000000   1.000000
   17       -1.566249     -1.566281   1.000000   1.000000
   18       -1.566249     -1.566281   1.000000   1.000000
   19       -1.540609     -1.540647   1.000000   1.000000
   20       -1.509798     -1.509829   1.000000   1.000000
   21       -1.509798     -1.509829   1.000000   1.000000
   22       -0.848802     -0.848850   1.000000   1.000000
   23       -0.848802     -0.848850   1.000000   1.000000
   24       -0.804429     -0.804487   1.000000   1.000000
   25       -0.804429     -0.804487   1.000000   1.000000
   26       -0.314947     -0.315011   1.000000   1.000000
   27       -0.314947     -0.315011   1.000000   1.000000
   28       -0.291954     -0.292019   1.000000   1.000000
   29        0.034017      0.033942   1.000000   1.000000
   30        0.034017      0.033942   1.000000   1.000000
   31        0.340180      0.340099   1.000000   1.000000
   32        0.340180      0.340099   1.000000   1.000000
   33        2.327990      2.327995   0.000000   0.000000
   34        2.650688      2.650686   0.000000   0.000000
   35        2.650688      2.650686   0.000000   0.000000
   36        2.992805      2.992794   0.000000   0.000000
   37        3.829358      3.829334   0.000000   0.000000
   38        3.829358      3.829334   0.000000   0.000000
   39        4.049858      4.049831   0.000000   0.000000
   40        4.049858      4.049831   0.000000   0.000000
   41        4.112719      4.112678   0.000000   0.000000
   42        4.112719      4.112678   0.000000   0.000000
   43        4.364519      4.364475   0.000000   0.000000
   44        4.364519      4.364475   0.000000   0.000000
   45        4.834631      4.834591   0.000000   0.000000
   46        4.834631      4.834591   0.000000   0.000000
   47        4.928432      4.928390   0.000000   0.000000
   48        5.202062      5.202013   0.000000   0.000000
   49        5.208393      5.208353   0.000000   0.000000
   50        5.754802      5.754768   0.000000   0.000000
   51        5.754802      5.754768   0.000000   0.000000
   52        6.370125      6.370092   0.000000   0.000000
   53        7.798111      7.798211   0.000000   0.000000
   54        9.875986      9.876077   0.000000   0.000000
   55        9.875986      9.876077   0.000000   0.000000
   56       12.528142     12.528241   0.000000   0.000000
 
  0.0000000E+00  0.0000000E+00  0.2631579E-01  0.4545455E-02
    1      -17.100858    -17.100902   1.000000   1.000000
    2      -16.632576    -16.632630   1.000000   1.000000
    3      -16.592241    -16.592295   1.000000   1.000000
    4      -16.105022    -16.105088   1.000000   1.000000
    5      -16.087439    -16.087505   1.000000   1.000000
    6      -15.890381    -15.890450   1.000000   1.000000
    7      -15.873152    -15.873221   1.000000   1.000000
    8      -15.640514    -15.640587   1.000000   1.000000
    9       -3.382093     -3.382115   1.000000   1.000000
   10       -3.319644     -3.319656   1.000000   1.000000
   11       -3.319644     -3.319656   1.000000   1.000000
   12       -3.235713     -3.235726   1.000000   1.000000
   13       -3.235713     -3.235726   1.000000   1.000000
   14       -3.148214     -3.148231   1.000000   1.000000
   15       -3.145105     -3.145124   1.000000   1.000000
   16       -2.884412     -2.884418   1.000000   1.000000
   17       -1.566190     -1.566222   1.000000   1.000000
   18       -1.566190     -1.566222   1.000000   1.000000
   19       -1.538884     -1.538922   1.000000   1.000000
   20       -1.509927     -1.509958   1.000000   1.000000
   21       -1.509927     -1.509958   1.000000   1.000000
   22       -0.854651     -0.854698   1.000000   1.000000
   23       -0.843018     -0.843066   1.000000   1.000000
   24       -0.803789     -0.803847   1.000000   1.000000
   25       -0.803789     -0.803847   1.000000   1.000000
   26       -0.316515     -0.316580   1.000000   1.000000
   27       -0.316515     -0.316580   1.000000   1.000000
   28       -0.293113     -0.293179   1.000000   1.000000
   29        0.035307      0.035232   1.000000   1.000000
   30        0.035307      0.035232   1.000000   1.000000
   31        0.339903      0.339823   1.000000   1.000000
   32        0.339903      0.339823   1.000000   1.000000
   33        2.328258      2.328264   0.000000   0.000000
   34        2.636986      2.636984   0.000000   0.000000
   35        2.664423      2.664421   0.000000   0.000000
   36        2.992504      2.992493   0.000000   0.000000
   37        3.829507      3.829482   0.000000   0.000000
   38        3.829507      3.829482   0.000000   0.000000
   39        4.047629      4.047601   0.000000   0.000000
   40        4.047629      4.047601   0.000000   0.000000
   41        4.114995      4.114955   0.000000   0.000000
   42        4.114995      4.114955   0.000000   0.000000
   43        4.364309      4.364265   0.000000   0.000000
   44        4.364309      4.364265   0.000000   0.000000
   45        4.822813      4.822773   0.000000   0.000000
   46        4.846890      4.846850   0.000000   0.000000
   47        4.927653      4.927611   0.000000   0.000000
   48        5.201558      5.201509   0.000000   0.000000
   49        5.208943      5.208903   0.000000   0.000000
   50        5.724296      5.724263   0.000000   0.000000
   51        5.786290      5.786256   0.000000   0.000000
   52        6.371010      6.370977   0.000000   0.000000
   53        7.798893      7.798993   0.000000   0.000000
   54        9.787371      9.787463   0.000000   0.000000
   55        9.964093      9.964184   0.000000   0.000000
   56       12.521650     12.521749   0.000000   0.000000
 
  0.0000000E+00  0.0000000E+00  0.5263158E-01  0.4545455E-02
    1      -17.099604    -17.099648   1.000000   1.000000
    2      -16.652722    -16.652775   1.000000   1.000000
    3      -16.572127    -16.572181   1.000000   1.000000
    4      -16.108611    -16.108676   1.000000   1.000000
    5      -16.084658    -16.084724   1.000000   1.000000
    6      -15.898826    -15.898895   1.000000   1.000000
    7      -15.864396    -15.864465   1.000000   1.000000
    8      -15.641223    -15.641295   1.000000   1.000000
    9       -3.380454     -3.380476   1.000000   1.000000
   10       -3.319234     -3.319246   1.000000   1.000000
   11       -3.319234     -3.319246   1.000000   1.000000
   12       -3.236167     -3.236180   1.000000   1.000000
   13       -3.236167     -3.236180   1.000000   1.000000
   14       -3.149921     -3.149939   1.000000   1.000000
   15       -3.143937     -3.143956   1.000000   1.000000
   16       -2.887635     -2.887641   1.000000   1.000000
   17       -1.565967     -1.565998   1.000000   1.000000
   18       -1.565967     -1.565998   1.000000   1.000000
   19       -1.533519     -1.533557   1.000000   1.000000
   20       -1.510310     -1.510341   1.000000   1.000000
   21       -1.510310     -1.510341   1.000000   1.000000
   22       -0.860752     -0.860800   1.000000   1.000000
   23       -0.837111     -0.837158   1.000000   1.000000
   24       -0.801874     -0.801932   1.000000   1.000000
   25       -0.801874     -0.801932   1.000000   1.000000
   26       -0.321139     -0.321203   1.000000   1.000000
   27       -0.321139     -0.321203   1.000000   1.000000
   28       -0.296524     -0.296589   1.000000   1.000000
   29        0.039109      0.039034   1.000000   1.000000
   30        0.039109      0.039034   1.000000   1.000000
   31        0.339073      0.338992   1.000000   1.000000
   32        0.339073      0.338992   1.000000   1.000000
   33        2.329063      2.329069   0.000000   0.000000
   34        2.623341      2.623339   0.000000   0.000000
   35        2.678170      2.678167   0.000000   0.000000
   36        2.991601      2.991590   0.000000   0.000000
   37        3.829947      3.829922   0.000000   0.000000
   38        3.829947      3.829922   0.000000   0.000000
   39        4.041717      4.041689   0.000000   0.000000
   40        4.041717      4.041689   0.000000   0.000000
   41        4.121042      4.121002   0.000000   0.000000
   42        4.121042      4.121002   0.000000   0.000000
   43        4.363681      4.363637   0.000000   0.000000
   44        4.363681      4.363637   0.000000   0.000000
   45        4.811533      4.811494   0.000000   0.000000
   46        4.859496      4.859455   0.000000   0.000000
   47        4.925351      4.925308   0.000000   0.000000
   48        5.200060      5.200011   0.000000   0.000000
   49        5.210587      5.210547   0.000000   0.000000
   50        5.694827      5.694794   0.000000   0.000000
   51        5.818687      5.818653   0.000000   0.000000
   52        6.373614      6.373581   0.000000   0.000000
   53        7.801279      7.801379   0.000000   0.000000
   54        9.698357      9.698448   0.000000   0.000000
   55       10.051595     10.051686   0.000000   0.000000
   56       12.502608     12.502708   0.000000   0.000000
 
  0.0000000E+00  0.0000000E+00  0.7894737E-01  0.4545455E-02
    1      -17.097549    -17.097593   1.000000   1.000000
    2      -16.672817    -16.672869   1.000000   1.000000
    3      -16.552092    -16.552147   1.000000   1.000000
    4      -16.113318    -16.113383   1.000000   1.000000
    5      -16.081323    -16.081389   1.000000   1.000000
    6      -15.907142    -15.907211   1.000000   1.000000
    7      -15.855565    -15.855635   1.000000   1.000000
    8      -15.642403    -15.642475   1.000000   1.000000
    9       -3.377760     -3.377781   1.000000   1.000000
   10       -3.318557     -3.318569   1.000000   1.000000
   11       -3.318557     -3.318569   1.000000   1.000000
   12       -3.236921     -3.236934   1.000000   1.000000
   13       -3.236921     -3.236934   1.000000   1.000000
   14       -3.151574     -3.151590   1.000000   1.000000
   15       -3.143215     -3.143235   1.000000   1.000000
   16       -2.893095     -2.893101   1.000000   1.000000
   17       -1.565601     -1.565633   1.000000   1.000000
   18       -1.565601     -1.565633   1.000000   1.000000
   19       -1.524724     -1.524762   1.000000   1.000000
   20       -1.510952     -1.510983   1.000000   1.000000
   21       -1.510952     -1.510983   1.000000   1.000000
   22       -0.867294     -0.867342   1.000000   1.000000
   23       -0.830919     -0.830967   1.000000   1.000000
   24       -0.798698     -0.798756   1.000000   1.000000
   25       -0.798698     -0.798756   1.000000   1.000000
   26       -0.328639     -0.328703   1.000000   1.000000
   27       -0.328639     -0.328703   1.000000   1.000000
   28       -0.302404     -0.302469   1.000000   1.000000
   29        0.045194      0.045119   1.000000   1.000000
   30        0.045194      0.045119   1.000000   1.000000
   31        0.337672      0.337592   1.000000   1.000000
   32        0.337672      0.337592   1.000000   1.000000
   33        2.330403      2.330408   0.000000   0.000000
   34        2.609774      2.609773   0.000000   0.000000
   35        2.691904      2.691900   0.000000   0.000000
   36        2.990099      2.990088   0.000000   0.000000
   37        3.830681      3.830657   0.000000   0.000000
   38        3.830681      3.830657   0.000000   0.000000
   39        4.033539      4.033511   0.000000   0.000000
   40        4.033539      4.033511   0.000000   0.000000
   41        4.129432      4.129393   0.000000   0.000000
   42        4.129432      4.129393   0.000000   0.000000
   43        4.362631      4.362587   0.000000   0.000000
   44        4.362631      4.362587   0.000000   0.000000
   45        4.800891      4.800852   0.000000   0.000000
   46        4.872362      4.872321   0.000000   0.000000
   47        4.921577      4.921535   0.000000   0.000000
   48        5.197577      5.197529   0.000000   0.000000
   49        5.213282      5.213242   0.000000   0.000000
   50        5.666437      5.666404   0.000000   0.000000
   51        5.851901      5.851865   0.000000   0.000000
   52        6.377796      6.377761   0.000000   0.000000
   53        7.805348      7.805449   0.000000   0.000000
   54        9.609067      9.609159   0.000000   0.000000
   55       10.138414     10.138505   0.000000   0.000000
   56       12.472201     12.472302   0.000000   0.000000
 
  0.0000000E+00  0.0000000E+00  0.1052632E+00  0.4545455E-02
    1      -17.094645    -17.094689   1.000000   1.000000
    2      -16.692812    -16.692864   1.000000   1.000000
    3      -16.532177    -16.532233   1.000000   1.000000
    4      -16.118743    -16.118807   1.000000   1.000000
    5      -16.077799    -16.077865   1.000000   1.000000
    6      -15.915321    -15.915390   1.000000   1.000000
    7      -15.846675    -15.846745   1.000000   1.000000
    8      -15.644049    -15.644122   1.000000   1.000000
    9       -3.374009     -3.374031   1.000000   1.000000
   10       -3.317609     -3.317621   1.000000   1.000000
   11       -3.317609     -3.317621   1.000000   1.000000
   12       -3.238020     -3.238032   1.000000   1.000000
   13       -3.238020     -3.238032   1.000000   1.000000
   14       -3.153065     -3.153081   1.000000   1.000000
   15       -3.142987     -3.143008   1.000000   1.000000
   16       -2.900393     -2.900399   1.000000   1.000000
   17       -1.565081     -1.565112   1.000000   1.000000
   18       -1.565081     -1.565112   1.000000   1.000000
   19       -1.512636     -1.512674   1.000000   1.000000
   20       -1.511876     -1.511907   1.000000   1.000000
   21       -1.511876     -1.511907   1.000000   1.000000
   22       -0.874454     -0.874502   1.000000   1.000000
   23       -0.824215     -0.824263   1.000000   1.000000
   24       -0.794271     -0.794329   1.000000   1.000000
   25       -0.794271     -0.794329   1.000000   1.000000
   26       -0.338628     -0.338692   1.000000   1.000000
   27       -0.338628     -0.338692   1.000000   1.000000
   28       -0.310346     -0.310410   1.000000   1.000000
   29        0.053279      0.053204   1.000000   1.000000
   30        0.053279      0.053204   1.000000   1.000000
   31        0.335721      0.335641   1.000000   1.000000
   32        0.335721      0.335641   1.000000   1.000000
   33        2.332275      2.332280   0.000000   0.000000
   34        2.596308      2.596308   0.000000   0.000000
   35        2.705599      2.705596   0.000000   0.000000
   36        2.988001      2.987990   0.000000   0.000000
   37        3.831713      3.831688   0.000000   0.000000
   38        3.831713      3.831688   0.000000   0.000000
   39        4.024158      4.024129   0.000000   0.000000
   40        4.024158      4.024129   0.000000   0.000000
   41        4.139122      4.139083   0.000000   0.000000
   42        4.139122      4.139083   0.000000   0.000000
   43        4.361149      4.361105   0.000000   0.000000
   44        4.361149      4.361105   0.000000   0.000000
   45        4.790988      4.790949   0.000000   0.000000
   46        4.885408      4.885366   0.000000   0.000000
   47        4.916439      4.916397   0.000000   0.000000
   48        5.194169      5.194121   0.000000   0.000000
   49        5.216964      5.216924   0.000000   0.000000
   50        5.639155      5.639122   0.000000   0.000000
   51        5.885824      5.885788   0.000000   0.000000
   52        6.383322      6.383286   0.000000   0.000000
   53        7.811280      7.811382   0.000000   0.000000
   54        9.519638      9.519731   0.000000   0.000000
   55       10.224481     10.224572   0.000000   0.000000
   56       12.432066     12.432166   0.000000   0.000000
 
  0.0000000E+00  0.0000000E+00  0.1315789E+00  0.4545455E-02
    1      -17.090916    -17.090960   1.000000   1.000000
    2      -16.712671    -16.712722   1.000000   1.000000
    3      -16.512403    -16.512459   1.000000   1.000000
    4      -16.124754    -16.124818   1.000000   1.000000
    5      -16.074225    -16.074291   1.000000   1.000000
    6      -15.923345    -15.923413   1.000000   1.000000
    7      -15.837756    -15.837825   1.000000   1.000000
    8      -15.646158    -15.646230   1.000000   1.000000
    9       -3.369238     -3.369260   1.000000   1.000000
   10       -3.316401     -3.316413   1.000000   1.000000
   11       -3.316401     -3.316413   1.000000   1.000000
   12       -3.239347     -3.239360   1.000000   1.000000
   13       -3.239347     -3.239360   1.000000   1.000000
   14       -3.154258     -3.154274   1.000000   1.000000
   15       -3.143436     -3.143457   1.000000   1.000000
   16       -2.909443     -2.909449   1.000000   1.000000
   17       -1.564414     -1.564446   1.000000   1.000000
   18       -1.564414     -1.564446   1.000000   1.000000
   19       -1.512975     -1.513006   1.000000   1.000000
   20       -1.512975     -1.513006   1.000000   1.000000
   21       -1.497485     -1.497523   1.000000   1.000000
   22       -0.882405     -0.882453   1.000000   1.000000
   23       -0.816909     -0.816956   1.000000   1.000000
   24       -0.788620     -0.788678   1.000000   1.000000
   25       -0.788620     -0.788678   1.000000   1.000000
   26       -0.350786     -0.350850   1.000000   1.000000
   27       -0.350786     -0.350850   1.000000   1.000000
   28       -0.320413     -0.320477   1.000000   1.000000
   29        0.063004      0.062929   1.000000   1.000000
   30        0.063004      0.062929   1.000000   1.000000
   31        0.333220      0.333139   1.000000   1.000000
   32        0.333220      0.333139   1.000000   1.000000
   33        2.334676      2.334681   0.000000   0.000000
   34        2.582968      2.582968   0.000000   0.000000
   35        2.719233      2.719229   0.000000   0.000000
   36        2.985309      2.985299   0.000000   0.000000
   37        3.833048      3.833023   0.000000   0.000000
   38        3.833048      3.833023   0.000000   0.000000
   39        4.014170      4.014141   0.000000   0.000000
   40        4.014170      4.014141   0.000000   0.000000
   41        4.149502      4.149464   0.000000   0.000000
   42        4.149502      4.149464   0.000000   0.000000
   43        4.359263      4.359219   0.000000   0.000000
   44        4.359263      4.359219   0.000000   0.000000
   45        4.781923      4.781884   0.000000   0.000000
   46        4.898558      4.898516   0.000000   0.000000
   47        4.910060      4.910018   0.000000   0.000000
   48        5.189881      5.189833   0.000000   0.000000
   49        5.221554      5.221514   0.000000   0.000000
   50        5.612991      5.612958   0.000000   0.000000
   51        5.920328      5.920291   0.000000   0.000000
   52        6.389881      6.389844   0.000000   0.000000
   53        7.819272      7.819375   0.000000   0.000000
   54        9.430225      9.430319   0.000000   0.000000
   55       10.309749     10.309839   0.000000   0.000000
   56       12.383957     12.384059   0.000000   0.000000
 
  0.0000000E+00  0.0000000E+00  0.1578947E+00  0.4545455E-02
    1      -17.086387    -17.086431   1.000000   1.000000
    2      -16.732361    -16.732412   1.000000   1.000000
    3      -16.492812    -16.492868   1.000000   1.000000
    4      -16.131325    -16.131389   1.000000   1.000000
    5      -16.070637    -16.070703   1.000000   1.000000
    6      -15.931207    -15.931275   1.000000   1.000000
    7      -15.828790    -15.828860   1.000000   1.000000
    8      -15.648729    -15.648801   1.000000   1.000000
    9       -3.363492     -3.363514   1.000000   1.000000
   10       -3.314970     -3.314982   1.000000   1.000000
   11       -3.314970     -3.314982   1.000000   1.000000
   12       -3.240946     -3.240959   1.000000   1.000000
   13       -3.240946     -3.240959   1.000000   1.000000
   14       -3.155056     -3.155071   1.000000   1.000000
   15       -3.144507     -3.144529   1.000000   1.000000
   16       -2.920032     -2.920038   1.000000   1.000000
   17       -1.563623     -1.563654   1.000000   1.000000
   18       -1.563623     -1.563654   1.000000   1.000000
   19       -1.514286     -1.514317   1.000000   1.000000
   20       -1.514286     -1.514317   1.000000   1.000000
   21       -1.479665     -1.479704   1.000000   1.000000
   22       -0.891302     -0.891350   1.000000   1.000000
   23       -0.808733     -0.808780   1.000000   1.000000
   24       -0.781773     -0.781831   1.000000   1.000000
   25       -0.781773     -0.781831   1.000000   1.000000
   26       -0.364805     -0.364869   1.000000   1.000000
   27       -0.364805     -0.364869   1.000000   1.000000
   28       -0.332506     -0.332569   1.000000   1.000000
   29        0.073986      0.073910   1.000000   1.000000
   30        0.073986      0.073910   1.000000   1.000000
   31        0.330156      0.330076   1.000000   1.000000
   32        0.330156      0.330076   1.000000   1.000000
   33        2.337604      2.337609   0.000000   0.000000
   34        2.569774      2.569774   0.000000   0.000000
   35        2.732781      2.732776   0.000000   0.000000
   36        2.982029      2.982019   0.000000   0.000000
   37        3.834692      3.834667   0.000000   0.000000
   38        3.834692      3.834667   0.000000   0.000000
   39        4.003911      4.003882   0.000000   0.000000
   40        4.003911      4.003882   0.000000   0.000000
   41        4.160224      4.160185   0.000000   0.000000
   42        4.160224      4.160185   0.000000   0.000000
   43        4.356958      4.356914   0.000000   0.000000
   44        4.356958      4.356914   0.000000   0.000000
   45        4.773790      4.773752   0.000000   0.000000
   46        4.902583      4.902541   0.000000   0.000000
   47        4.911751      4.911709   0.000000   0.000000
   48        5.184775      5.184727   0.000000   0.000000
   49        5.226970      5.226931   0.000000   0.000000
   50        5.587947      5.587914   0.000000   0.000000
   51        5.955274      5.955236   0.000000   0.000000
   52        6.397088      6.397048   0.000000   0.000000
   53        7.829580      7.829685   0.000000   0.000000
   54        9.340995      9.341089   0.000000   0.000000
   55       10.394177     10.394268   0.000000   0.000000
   56       12.329526     12.329628   0.000000   0.000000
 
  0.0000000E+00  0.0000000E+00  0.1842105E+00  0.4545455E-02
    1      -17.081030    -17.081075   1.000000   1.000000
    2      -16.751836    -16.751887   1.000000   1.000000
    3      -16.473434    -16.473490   1.000000   1.000000
    4      -16.138430    -16.138494   1.000000   1.000000
    5      -16.067028    -16.067094   1.000000   1.000000
    6      -15.938887    -15.938956   1.000000   1.000000
    7      -15.819815    -15.819885   1.000000   1.000000
    8      -15.651740    -15.651813   1.000000   1.000000
    9       -3.356817     -3.356839   1.000000   1.000000
   10       -3.313263     -3.313275   1.000000   1.000000
   11       -3.313263     -3.313275   1.000000   1.000000
   12       -3.242793     -3.242806   1.000000   1.000000
   13       -3.242793     -3.242806   1.000000   1.000000
   14       -3.155271     -3.155285   1.000000   1.000000
   15       -3.146334     -3.146356   1.000000   1.000000
   16       -2.931922     -2.931928   1.000000   1.000000
   17       -1.562668     -1.562700   1.000000   1.000000
   18       -1.562668     -1.562700   1.000000   1.000000
   19       -1.515781     -1.515812   1.000000   1.000000
   20       -1.515781     -1.515812   1.000000   1.000000
   21       -1.459203     -1.459241   1.000000   1.000000
   22       -0.901281     -0.901329   1.000000   1.000000
   23       -0.799541     -0.799589   1.000000   1.000000
   24       -0.773749     -0.773807   1.000000   1.000000
   25       -0.773749     -0.773807   1.000000   1.000000
   26       -0.380245     -0.380309   1.000000   1.000000
   27       -0.380245     -0.380309   1.000000   1.000000
   28       -0.346495     -0.346558   1.000000   1.000000
   29        0.085972      0.085897   1.000000   1.000000
   30        0.085972      0.085897   1.000000   1.000000
   31        0.326528      0.326448   1.000000   1.000000
   32        0.326528      0.326448   1.000000   1.000000
   33        2.341054      2.341058   0.000000   0.000000
   34        2.556748      2.556747   0.000000   0.000000
   35        2.746219      2.746214   0.000000   0.000000
   36        2.978168      2.978158   0.000000   0.000000
   37        3.836653      3.836628   0.000000   0.000000
   38        3.836653      3.836628   0.000000   0.000000
   39        3.993580      3.993551   0.000000   0.000000
   40        3.993580      3.993551   0.000000   0.000000
   41        4.171112      4.171073   0.000000   0.000000
   42        4.171112      4.171073   0.000000   0.000000
   43        4.354234      4.354191   0.000000   0.000000
   44        4.354234      4.354191   0.000000   0.000000
   45        4.766678      4.766640   0.000000   0.000000
   46        4.894163      4.894121   0.000000   0.000000
   47        4.924931      4.924889   0.000000   0.000000
   48        5.178919      5.178871   0.000000   0.000000
   49        5.233136      5.233097   0.000000   0.000000
   50        5.564018      5.563985   0.000000   0.000000
   51        5.990498      5.990460   0.000000   0.000000
   52        6.404505      6.404463   0.000000   0.000000
   53        7.842517      7.842623   0.000000   0.000000
   54        9.252131      9.252227   0.000000   0.000000
   55       10.477745     10.477836   0.000000   0.000000
   56       12.270191     12.270293   0.000000   0.000000
 
  0.0000000E+00  0.0000000E+00  0.2105263E+00  0.4545455E-02
    1      -17.074874    -17.074919   1.000000   1.000000
    2      -16.771095    -16.771145   1.000000   1.000000
    3      -16.454330    -16.454387   1.000000   1.000000
    4      -16.146084    -16.146149   1.000000   1.000000
    5      -16.063386    -16.063452   1.000000   1.000000
    6      -15.946405    -15.946474   1.000000   1.000000
    7      -15.810847    -15.810917   1.000000   1.000000
    8      -15.655190    -15.655263   1.000000   1.000000
    9       -3.349272     -3.349294   1.000000   1.000000
   10       -3.311321     -3.311333   1.000000   1.000000
   11       -3.311321     -3.311333   1.000000   1.000000
   12       -3.244917     -3.244929   1.000000   1.000000
   13       -3.244917     -3.244929   1.000000   1.000000
   14       -3.155035     -3.155048   1.000000   1.000000
   15       -3.149010     -3.149032   1.000000   1.000000
   16       -2.944863     -2.944870   1.000000   1.000000
   17       -1.561575     -1.561607   1.000000   1.000000
   18       -1.561575     -1.561607   1.000000   1.000000
   19       -1.517498     -1.517529   1.000000   1.000000
   20       -1.517498     -1.517529   1.000000   1.000000
   21       -1.436544     -1.436583   1.000000   1.000000
   22       -0.912491     -0.912539   1.000000   1.000000
   23       -0.789358     -0.789406   1.000000   1.000000
   24       -0.764617     -0.764675   1.000000   1.000000
   25       -0.764617     -0.764675   1.000000   1.000000
   26       -0.396865     -0.396929   1.000000   1.000000
   27       -0.396865     -0.396929   1.000000   1.000000
   28       -0.362241     -0.362303   1.000000   1.000000
   29        0.098652      0.098576   1.000000   1.000000
   30        0.098652      0.098576   1.000000   1.000000
   31        0.322288      0.322208   1.000000   1.000000
   32        0.322288      0.322208   1.000000   1.000000
   33        2.345021      2.345025   0.000000   0.000000
   34        2.543909      2.543909   0.000000   0.000000
   35        2.759525      2.759520   0.000000   0.000000
   36        2.973734      2.973723   0.000000   0.000000
   37        3.838937      3.838912   0.000000   0.000000
   38        3.838937      3.838912   0.000000   0.000000
   39        3.983302      3.983273   0.000000   0.000000
   40        3.983302      3.983273   0.000000   0.000000
   41        4.182028      4.181989   0.000000   0.000000
   42        4.182028      4.181989   0.000000   0.000000
   43        4.351080      4.351036   0.000000   0.000000
   44        4.351080      4.351036   0.000000   0.000000
   45        4.760662      4.760625   0.000000   0.000000
   46        4.884958      4.884916   0.000000   0.000000
   47        4.938050      4.938007   0.000000   0.000000
   48        5.172383      5.172335   0.000000   0.000000
   49        5.239982      5.239943   0.000000   0.000000
   50        5.541169      5.541136   0.000000   0.000000
   51        6.025821      6.025781   0.000000   0.000000
   52        6.411656      6.411612   0.000000   0.000000
   53        7.858401      7.858509   0.000000   0.000000
   54        9.163822      9.163918   0.000000   0.000000
   55       10.560431     10.560523   0.000000   0.000000
   56       12.207112     12.207215   0.000000   0.000000
 