       N       E                     dE             d eps       ncg     rms          rms(c)
DAV:   1    -0.974103044024E+02   -0.97410E+02   -0.87765E+02 56812   0.944E+01
DAV:   2    -0.103995897151E+03   -0.65856E+01   -0.65661E+01 61208   0.304E+01
DAV:   3    -0.104031940731E+03   -0.36044E-01   -0.36040E-01 58016   0.226E+00
DAV:   4    -0.104032278492E+03   -0.33776E-03   -0.33774E-03 60620   0.206E-01
DAV:   5    -0.104032284093E+03   -0.56009E-05   -0.56009E-05 57680   0.221E-02
DAV:   6    -0.104032284216E+03   -0.12303E-06   -0.12301E-06 60424   0.298E-03
   1 F= -.10403228E+03 E0= -.10403228E+03  d E =-.218863E-16  mag=     0.0004
