<?xml version="1.0" encoding="ISO-8859-1"?>
<modeling>
 <generator>
  <i name="program" type="string">vasp </i>
  <i name="version" type="string">5.4.4.18Apr17-6-g9f103f2a35  </i>
  <i name="subversion" type="string">(build Jun 06 2017 18:21:11) complex            parallel </i>
  <i name="platform" type="string">LinuxIFC </i>
  <i name="date" type="string">2018 01 25 </i>
  <i name="time" type="string">15:48:48 </i>
 </generator>
 <incar>
  <i type="int" name="ISTART">     0</i>
  <i type="string" name="PREC">accurate</i>
  <i type="string" name="ALGO"> Normal</i>
  <i type="int" name="ISPIN">     2</i>
  <i type="int" name="ICHARG">     2</i>
  <i type="int" name="NELM">   100</i>
  <i type="int" name="NELMIN">     5</i>
  <i type="int" name="IBRION">     2</i>
  <i name="EDIFF">      0.00001000</i>
  <i name="EDIFFG">     -0.03000000</i>
  <i type="int" name="NSW">   200</i>
  <i type="int" name="ISIF">     3</i>
  <i name="ENCUT">    500.00000000</i>
  <i type="int" name="ISMEAR">     0</i>
  <i name="SIGMA">      0.20000000</i>
  <i type="int" name="LMAXMIX">     4</i>
  <i type="logical" name="LWAVE"> F  </i>
  <i type="logical" name="LCHARG"> F  </i>
  <v type="int" name="KPOINT_BSE">    -1     0     0     0</v>
  <i type="int" name="NELM">   100</i>
 </incar>
 <structure name="primitive_cell" >
  <crystal>
   <varray name="basis" >
    <v>       7.56840000       0.00000000       0.00000000 </v>
    <v>       0.00000000       7.56840000       0.00000000 </v>
    <v>       0.00000000       0.00000000       9.51460000 </v>
   </varray>
   <i name="volume">    545.00274423 </i>
   <varray name="rec_basis" >
    <v>       0.13212832      -0.00000000      -0.00000000 </v>
    <v>       0.00000000       0.13212832      -0.00000000 </v>
    <v>       0.00000000       0.00000000       0.10510163 </v>
   </varray>
  </crystal>
  <varray name="positions" >
   <v>       0.00000000       0.00000000       0.20810000 </v>
   <v>       0.00000000       0.25000000       0.25000000 </v>
   <v>       0.00000000      -0.25000000       0.25000000 </v>
   <v>       0.00000000       0.00000000       0.00000000 </v>
   <v>       0.00000000       0.25000000       0.04190000 </v>
   <v>       0.00000000      -0.25000000       0.04190000 </v>
   <v>      -0.25000000       0.25000000       0.29190000 </v>
   <v>       0.25000000      -0.25000000       0.29190000 </v>
   <v>       0.25000000       0.25000000       0.29190000 </v>
   <v>      -0.25000000      -0.25000000       0.29190000 </v>
   <v>       0.25000000       0.00000000      -0.04190000 </v>
   <v>       0.00000000      -0.25000000       0.45810000 </v>
   <v>       0.00000000       0.25000000       0.45810000 </v>
   <v>      -0.25000000       0.00000000      -0.04190000 </v>
   <v>      -0.25000000       0.00000000      -0.45810000 </v>
   <v>       0.25000000       0.00000000      -0.45810000 </v>
   <v>      -0.50000000       0.00000000       0.20810000 </v>
   <v>       0.00000000      -0.50000000       0.20810000 </v>
   <v>      -0.25000000       0.25000000      -0.50000000 </v>
   <v>       0.25000000      -0.25000000      -0.50000000 </v>
   <v>      -0.25000000      -0.25000000      -0.50000000 </v>
   <v>       0.25000000       0.25000000      -0.50000000 </v>
   <v>       0.00000000       0.00000000      -0.20810000 </v>
   <v>      -0.50000000       0.25000000       0.25000000 </v>
   <v>      -0.50000000      -0.25000000       0.25000000 </v>
   <v>      -0.50000000       0.00000000       0.00000000 </v>
   <v>       0.00000000      -0.50000000       0.00000000 </v>
   <v>      -0.50000000       0.25000000       0.04190000 </v>
   <v>      -0.50000000      -0.25000000       0.04190000 </v>
   <v>       0.25000000       0.00000000      -0.25000000 </v>
   <v>      -0.25000000       0.00000000      -0.25000000 </v>
   <v>      -0.50000000       0.25000000       0.45810000 </v>
   <v>       0.25000000      -0.50000000      -0.04190000 </v>
   <v>      -0.50000000      -0.25000000       0.45810000 </v>
   <v>      -0.25000000      -0.50000000      -0.04190000 </v>
   <v>       0.25000000      -0.50000000      -0.45810000 </v>
   <v>      -0.25000000      -0.50000000      -0.45810000 </v>
   <v>      -0.50000000      -0.50000000       0.20810000 </v>
   <v>       0.25000000       0.25000000      -0.29190000 </v>
   <v>      -0.25000000       0.25000000      -0.29190000 </v>
   <v>       0.25000000      -0.25000000      -0.29190000 </v>
   <v>      -0.25000000      -0.25000000      -0.29190000 </v>
   <v>      -0.50000000       0.00000000      -0.20810000 </v>
   <v>       0.00000000      -0.50000000      -0.20810000 </v>
   <v>      -0.50000000      -0.50000000       0.00000000 </v>
   <v>       0.25000000      -0.50000000      -0.25000000 </v>
   <v>      -0.25000000      -0.50000000      -0.25000000 </v>
   <v>      -0.50000000      -0.50000000      -0.20810000 </v>
  </varray>
 </structure>
 <varray name="primitive_index" >
  <v type="int" >        1 </v>
  <v type="int" >       33 </v>
  <v type="int" >       41 </v>
  <v type="int" >       48 </v>
  <v type="int" >        5 </v>
  <v type="int" >       21 </v>
  <v type="int" >       16 </v>
  <v type="int" >       24 </v>
  <v type="int" >        8 </v>
  <v type="int" >       32 </v>
  <v type="int" >        4 </v>
  <v type="int" >       18 </v>
  <v type="int" >        2 </v>
  <v type="int" >       12 </v>
  <v type="int" >       15 </v>
  <v type="int" >        7 </v>
  <v type="int" >        9 </v>
  <v type="int" >       17 </v>
  <v type="int" >       38 </v>
  <v type="int" >       42 </v>
  <v type="int" >       46 </v>
  <v type="int" >       34 </v>
  <v type="int" >        6 </v>
  <v type="int" >       37 </v>
  <v type="int" >       45 </v>
  <v type="int" >       36 </v>
  <v type="int" >       40 </v>
  <v type="int" >       13 </v>
  <v type="int" >       29 </v>
  <v type="int" >       35 </v>
  <v type="int" >       39 </v>
  <v type="int" >       10 </v>
  <v type="int" >       20 </v>
  <v type="int" >       26 </v>
  <v type="int" >       28 </v>
  <v type="int" >       23 </v>
  <v type="int" >       31 </v>
  <v type="int" >       25 </v>
  <v type="int" >        3 </v>
  <v type="int" >       11 </v>
  <v type="int" >       19 </v>
  <v type="int" >       27 </v>
  <v type="int" >       14 </v>
  <v type="int" >       22 </v>
  <v type="int" >       44 </v>
  <v type="int" >       43 </v>
  <v type="int" >       47 </v>
  <v type="int" >       30 </v>
 </varray>
 <kpoints>
  <generation param="Gamma">
   <v type="int" name="divisions">       8        8        8 </v>
   <v name="usershift">      0.00000000       0.00000000       0.00000000 </v>
   <v name="genvec1">      0.12500000      -0.00000000      -0.00000000 </v>
   <v name="genvec2">      0.00000000       0.12500000      -0.00000000 </v>
   <v name="genvec3">      0.00000000       0.00000000       0.12500000 </v>
   <v name="shift">      0.00000000       0.00000000       0.00000000 </v>
  </generation>
  <varray name="kpointlist" >
   <v>       0.00000000       0.00000000       0.00000000 </v>
   <v>       0.12500000       0.00000000       0.00000000 </v>
   <v>       0.25000000       0.00000000       0.00000000 </v>
   <v>       0.37500000       0.00000000       0.00000000 </v>
   <v>       0.50000000       0.00000000       0.00000000 </v>
   <v>       0.12500000       0.12500000       0.00000000 </v>
   <v>       0.25000000       0.12500000       0.00000000 </v>
   <v>       0.37500000       0.12500000       0.00000000 </v>
   <v>       0.50000000       0.12500000       0.00000000 </v>
   <v>       0.25000000       0.25000000       0.00000000 </v>
   <v>       0.37500000       0.25000000       0.00000000 </v>
   <v>       0.50000000       0.25000000       0.00000000 </v>
   <v>       0.37500000       0.37500000       0.00000000 </v>
   <v>       0.50000000       0.37500000       0.00000000 </v>
   <v>       0.50000000       0.50000000       0.00000000 </v>
   <v>       0.00000000       0.00000000       0.12500000 </v>
   <v>       0.12500000       0.00000000       0.12500000 </v>
   <v>       0.25000000       0.00000000       0.12500000 </v>
   <v>       0.37500000       0.00000000       0.12500000 </v>
   <v>       0.50000000       0.00000000       0.12500000 </v>
   <v>       0.12500000       0.12500000       0.12500000 </v>
   <v>       0.25000000       0.12500000       0.12500000 </v>
   <v>       0.37500000       0.12500000       0.12500000 </v>
   <v>       0.50000000       0.12500000       0.12500000 </v>
   <v>       0.25000000       0.25000000       0.12500000 </v>
   <v>       0.37500000       0.25000000       0.12500000 </v>
   <v>       0.50000000       0.25000000       0.12500000 </v>
   <v>       0.37500000       0.37500000       0.12500000 </v>
   <v>       0.50000000       0.37500000       0.12500000 </v>
   <v>       0.50000000       0.50000000       0.12500000 </v>
   <v>       0.00000000       0.00000000       0.25000000 </v>
   <v>       0.12500000       0.00000000       0.25000000 </v>
   <v>       0.25000000       0.00000000       0.25000000 </v>
   <v>       0.37500000       0.00000000       0.25000000 </v>
   <v>       0.50000000       0.00000000       0.25000000 </v>
   <v>       0.12500000       0.12500000       0.25000000 </v>
   <v>       0.25000000       0.12500000       0.25000000 </v>
   <v>       0.37500000       0.12500000       0.25000000 </v>
   <v>       0.50000000       0.12500000       0.25000000 </v>
   <v>       0.25000000       0.25000000       0.25000000 </v>
   <v>       0.37500000       0.25000000       0.25000000 </v>
   <v>       0.50000000       0.25000000       0.25000000 </v>
   <v>       0.37500000       0.37500000       0.25000000 </v>
   <v>       0.50000000       0.37500000       0.25000000 </v>
   <v>       0.50000000       0.50000000       0.25000000 </v>
   <v>       0.00000000       0.00000000       0.37500000 </v>
   <v>       0.12500000       0.00000000       0.37500000 </v>
   <v>       0.25000000       0.00000000       0.37500000 </v>
   <v>       0.37500000       0.00000000       0.37500000 </v>
   <v>       0.50000000       0.00000000       0.37500000 </v>
   <v>       0.12500000       0.12500000       0.37500000 </v>
   <v>       0.25000000       0.12500000       0.37500000 </v>
   <v>       0.37500000       0.12500000       0.37500000 </v>
   <v>       0.50000000       0.12500000       0.37500000 </v>
   <v>       0.25000000       0.25000000       0.37500000 </v>
   <v>       0.37500000       0.25000000       0.37500000 </v>
   <v>       0.50000000       0.25000000       0.37500000 </v>
   <v>       0.37500000       0.37500000       0.37500000 </v>
   <v>       0.50000000       0.37500000       0.37500000 </v>
   <v>       0.50000000       0.50000000       0.37500000 </v>
   <v>       0.00000000       0.00000000       0.50000000 </v>
   <v>       0.12500000       0.00000000       0.50000000 </v>
   <v>       0.25000000       0.00000000       0.50000000 </v>
   <v>       0.37500000       0.00000000       0.50000000 </v>
   <v>       0.50000000       0.00000000       0.50000000 </v>
   <v>       0.12500000       0.12500000       0.50000000 </v>
   <v>       0.25000000       0.12500000       0.50000000 </v>
   <v>       0.37500000       0.12500000       0.50000000 </v>
   <v>       0.50000000       0.12500000       0.50000000 </v>
   <v>       0.25000000       0.25000000       0.50000000 </v>
   <v>       0.37500000       0.25000000       0.50000000 </v>
   <v>       0.50000000       0.25000000       0.50000000 </v>
   <v>       0.37500000       0.37500000       0.50000000 </v>
   <v>       0.50000000       0.37500000       0.50000000 </v>
   <v>       0.50000000       0.50000000       0.50000000 </v>
  </varray>
  <varray name="weights" >
   <v>       0.00195312 </v>
   <v>       0.00781250 </v>
   <v>       0.00781250 </v>
   <v>       0.00781250 </v>
   <v>       0.00390625 </v>
   <v>       0.00781250 </v>
   <v>       0.01562500 </v>
   <v>       0.01562500 </v>
   <v>       0.00781250 </v>
   <v>       0.00781250 </v>
   <v>       0.01562500 </v>
   <v>       0.00781250 </v>
   <v>       0.00781250 </v>
   <v>       0.00781250 </v>
   <v>       0.00195312 </v>
   <v>       0.00390625 </v>
   <v>       0.01562500 </v>
   <v>       0.01562500 </v>
   <v>       0.01562500 </v>
   <v>       0.00781250 </v>
   <v>       0.01562500 </v>
   <v>       0.03125000 </v>
   <v>       0.03125000 </v>
   <v>       0.01562500 </v>
   <v>       0.01562500 </v>
   <v>       0.03125000 </v>
   <v>       0.01562500 </v>
   <v>       0.01562500 </v>
   <v>       0.01562500 </v>
   <v>       0.00390625 </v>
   <v>       0.00390625 </v>
   <v>       0.01562500 </v>
   <v>       0.01562500 </v>
   <v>       0.01562500 </v>
   <v>       0.00781250 </v>
   <v>       0.01562500 </v>
   <v>       0.03125000 </v>
   <v>       0.03125000 </v>
   <v>       0.01562500 </v>
   <v>       0.01562500 </v>
   <v>       0.03125000 </v>
   <v>       0.01562500 </v>
   <v>       0.01562500 </v>
   <v>       0.01562500 </v>
   <v>       0.00390625 </v>
   <v>       0.00390625 </v>
   <v>       0.01562500 </v>
   <v>       0.01562500 </v>
   <v>       0.01562500 </v>
   <v>       0.00781250 </v>
   <v>       0.01562500 </v>
   <v>       0.03125000 </v>
   <v>       0.03125000 </v>
   <v>       0.01562500 </v>
   <v>       0.01562500 </v>
   <v>       0.03125000 </v>
   <v>       0.01562500 </v>
   <v>       0.01562500 </v>
   <v>       0.01562500 </v>
   <v>       0.00390625 </v>
   <v>       0.00195312 </v>
   <v>       0.00781250 </v>
   <v>       0.00781250 </v>
   <v>       0.00781250 </v>
   <v>       0.00390625 </v>
   <v>       0.00781250 </v>
   <v>       0.01562500 </v>
   <v>       0.01562500 </v>
   <v>       0.00781250 </v>
   <v>       0.00781250 </v>
   <v>       0.01562500 </v>
   <v>       0.00781250 </v>
   <v>       0.00781250 </v>
   <v>       0.00781250 </v>
   <v>       0.00195312 </v>
  </varray>
 </kpoints>
 <parameters>
  <separator name="general" >
   <i type="string" name="SYSTEM">unknown system</i>
   <i type="logical" name="LCOMPAT"> F  </i>
  </separator>
  <separator name="electronic" >
   <i type="string" name="PREC">accura</i>
   <i name="ENMAX">    500.00000000</i>
   <i name="ENAUG">    605.39200000</i>
   <i name="EDIFF">      0.00001000</i>
   <i type="int" name="IALGO">    38</i>
   <i type="int" name="IWAVPR">    11</i>
   <i type="int" name="NBANDS">   280</i>
   <i name="NELECT">    386.00000000</i>
   <i type="int" name="TURBO">     0</i>
   <i type="int" name="IRESTART">     0</i>
   <i type="int" name="NREBOOT">     0</i>
   <i type="int" name="NMIN">     0</i>
   <i name="EREF">      0.00000000</i>
   <separator name="electronic smearing" >
    <i type="int" name="ISMEAR">     0</i>
    <i name="SIGMA">      0.20000000</i>
    <i name="KSPACING">      0.50000000</i>
    <i type="logical" name="KGAMMA"> T  </i>
   </separator>
   <separator name="electronic projectors" >
    <i type="logical" name="LREAL"> F  </i>
    <v name="ROPT">      0.00000000      0.00000000      0.00000000</v>
    <i type="int" name="LMAXPAW">  -100</i>
    <i type="int" name="LMAXMIX">     4</i>
    <i type="logical" name="NLSPLINE"> F  </i>
   </separator>
   <separator name="electronic startup" >
    <i type="int" name="ISTART">     0</i>
    <i type="int" name="ICHARG">     2</i>
    <i type="int" name="INIWAV">     1</i>
   </separator>
   <separator name="electronic spin" >
    <i type="int" name="ISPIN">     2</i>
    <i type="logical" name="LNONCOLLINEAR"> F  </i>
    <v name="MAGMOM">      1.00000000      1.00000000      1.00000000      1.00000000      1.00000000      1.00000000      1.00000000      1.00000000      1.00000000      1.00000000      1.00000000      1.00000000      1.00000000      1.00000000      1.00000000      1.00000000      1.00000000      1.00000000      1.00000000      1.00000000
      1.00000000      1.00000000      1.00000000      1.00000000      1.00000000      1.00000000      1.00000000      1.00000000      1.00000000      1.00000000      1.00000000      1.00000000      1.00000000      1.00000000      1.00000000      1.00000000      1.00000000      1.00000000      1.00000000      1.00000000
      1.00000000      1.00000000      1.00000000      1.00000000      1.00000000      1.00000000      1.00000000      1.00000000</v>
    <i name="NUPDOWN">     -1.00000000</i>
    <i type="logical" name="LSORBIT"> F  </i>
    <v name="SAXIS">      0.00000000      0.00000000      1.00000000</v>
    <i type="logical" name="LSPIRAL"> F  </i>
    <v name="QSPIRAL">      0.00000000      0.00000000      0.00000000</v>
    <i type="logical" name="LZEROZ"> F  </i>
   </separator>
   <separator name="electronic exchange-correlation" >
    <i type="logical" name="LASPH"> F  </i>
    <i type="logical" name="LMETAGGA"> F  </i>
   </separator>
   <separator name="electronic convergence" >
    <i type="int" name="NELM">   100</i>
    <i type="int" name="NELMDL">    -5</i>
    <i type="int" name="NELMIN">     5</i>
    <i name="ENINI">    500.00000000</i>
    <separator name="electronic convergence detail" >
     <i type="logical" name="LDIAG"> T  </i>
     <i type="logical" name="LSUBROT"> F  </i>
     <i name="WEIMIN">      0.00100000</i>
     <i name="EBREAK">      0.00000001</i>
     <i name="DEPER">      0.30000000</i>
     <i type="int" name="NRMM">     4</i>
     <i name="TIME">      0.40000000</i>
    </separator>
   </separator>
   <separator name="electronic mixer" >
    <i name="AMIX">      0.40000000</i>
    <i name="BMIX">      1.00000000</i>
    <i name="AMIN">      0.10000000</i>
    <i name="AMIX_MAG">      1.60000000</i>
    <i name="BMIX_MAG">      1.00000000</i>
    <separator name="electronic mixer details" >
     <i type="int" name="IMIX">     4</i>
     <i type="logical" name="MIXFIRST"> F  </i>
     <i type="int" name="MAXMIX">   -45</i>
     <i name="WC">    100.00000000</i>
     <i type="int" name="INIMIX">     1</i>
     <i type="int" name="MIXPRE">     1</i>
     <i type="int" name="MREMOVE">     5</i>
    </separator>
   </separator>
   <separator name="electronic dipolcorrection" >
    <i type="logical" name="LDIPOL"> F  </i>
    <i type="logical" name="LMONO"> F  </i>
    <i type="int" name="IDIPOL">     0</i>
    <i name="EPSILON">      1.00000000</i>
    <v name="DIPOL">   -100.00000000   -100.00000000   -100.00000000</v>
    <i name="EFIELD">      0.00000000</i>
   </separator>
  </separator>
  <separator name="grids" >
   <i type="int" name="NGX">    56</i>
   <i type="int" name="NGY">    56</i>
   <i type="int" name="NGZ">    70</i>
   <i type="int" name="NGXF">   112</i>
   <i type="int" name="NGYF">   112</i>
   <i type="int" name="NGZF">   140</i>
   <i type="logical" name="ADDGRID"> F  </i>
  </separator>
  <separator name="ionic" >
   <i type="int" name="NSW">   200</i>
   <i type="int" name="IBRION">     2</i>
   <i type="int" name="MDALGO">     0</i>
   <i type="int" name="ISIF">     3</i>
   <i name="PSTRESS">      0.00000000</i>
   <i name="EDIFFG">     -0.03000000</i>
   <i type="int" name="NFREE">     1</i>
   <i name="POTIM">      0.50000000</i>
   <i name="SMASS">     -3.00000000</i>
   <i name="SCALEE">      1.00000000</i>
  </separator>
  <separator name="ionic md" >
   <i name="TEBEG">      0.00010000</i>
   <i name="TEEND">      0.00010000</i>
   <i type="int" name="NBLOCK">     1</i>
   <i type="int" name="KBLOCK">   200</i>
   <i type="int" name="NPACO">   256</i>
   <i name="APACO">     16.00000000</i>
  </separator>
  <separator name="symmetry" >
   <i type="int" name="ISYM">     2</i>
   <i name="SYMPREC">      0.00001000</i>
  </separator>
  <separator name="dos" >
   <i type="int" name="LORBIT">     0</i>
   <v name="RWIGS">     -1.00000000     -1.00000000     -1.00000000</v>
   <i type="int" name="NEDOS">   301</i>
   <i name="EMIN">     10.00000000</i>
   <i name="EMAX">    -10.00000000</i>
   <i name="EFERMI">      0.00000000</i>
  </separator>
  <separator name="writing" >
   <i type="int" name="NWRITE">     2</i>
   <i type="logical" name="LWAVE"> F  </i>
   <i type="logical" name="LDOWNSAMPLE"> F  </i>
   <i type="logical" name="LCHARG"> F  </i>
   <i type="logical" name="LPARD"> F  </i>
   <i type="logical" name="LVTOT"> F  </i>
   <i type="logical" name="LVHAR"> F  </i>
   <i type="logical" name="LELF"> F  </i>
   <i type="logical" name="LOPTICS"> F  </i>
   <v name="STM">      0.00000000      0.00000000      0.00000000      0.00000000      0.00000000      0.00000000      0.00000000</v>
  </separator>
  <separator name="performance" >
   <i type="int" name="NPAR">    28</i>
   <i type="int" name="NSIM">     4</i>
   <i type="int" name="NBLK">    -1</i>
   <i type="logical" name="LPLANE"> T  </i>
   <i type="logical" name="LSCALAPACK"> T  </i>
   <i type="logical" name="LSCAAWARE"> F  </i>
   <i type="logical" name="LSCALU"> F  </i>
   <i type="logical" name="LASYNC"> F  </i>
   <i type="logical" name="LORBITALREAL"> F  </i>
  </separator>
  <separator name="miscellaneous" >
   <i type="int" name="IDIOT">     3</i>
   <i type="int" name="ISPECIAL">     0</i>
   <i type="logical" name="LMUSIC"> F  </i>
   <v name="POMASS">     16.00000000     47.88000000    238.02900000</v>
   <v name="DARWINR">      0.00000000      0.00000000      0.00000000</v>
   <v name="DARWINV">      1.00000000      1.00000000      1.00000000</v>
   <i type="logical" name="LCORR"> T  </i>
  </separator>
  <i type="logical" name="GGA_COMPAT"> T  </i>
  <i type="logical" name="LBERRY"> F  </i>
  <i type="int" name="ICORELEVEL">     0</i>
  <i type="logical" name="LDAU"> F  </i>
  <i type="int" name="I_CONSTRAINED_M">     0</i>
  <separator name="electronic exchange-correlation" >
   <i type="string" name="GGA">--</i>
   <i type="int" name="VOSKOWN">     0</i>
   <i type="logical" name="LHFCALC"> F  </i>
   <i type="string" name="PRECFOCK"></i>
   <i type="logical" name="LSYMGRAD"> F  </i>
   <i type="logical" name="LHFONE"> F  </i>
   <i type="logical" name="LRHFCALC"> F  </i>
   <i type="logical" name="LTHOMAS"> F  </i>
   <i type="logical" name="LMODELHF"> F  </i>
   <i name="ENCUT4O">     -1.00000000</i>
   <i type="int" name="EXXOEP">     0</i>
   <i type="int" name="FOURORBIT">     0</i>
   <i name="AEXX">      0.00000000</i>
   <i name="HFALPHA">      0.00000000</i>
   <i name="MCALPHA">      0.00000000</i>
   <i name="ALDAX">      1.00000000</i>
   <i name="AGGAX">      1.00000000</i>
   <i name="ALDAC">      1.00000000</i>
   <i name="AGGAC">      1.00000000</i>
   <i type="int" name="NKREDX">     1</i>
   <i type="int" name="NKREDY">     1</i>
   <i type="int" name="NKREDZ">     1</i>
   <i type="logical" name="SHIFTRED"> F  </i>
   <i type="logical" name="ODDONLY"> F  </i>
   <i type="logical" name="EVENONLY"> F  </i>
   <i type="int" name="LMAXFOCK">     0</i>
   <i type="int" name="NMAXFOCKAE">     0</i>
   <i type="logical" name="LFOCKAEDFT"> F  </i>
   <i name="HFSCREEN">      0.00000000</i>
   <i name="HFSCREENC">      0.00000000</i>
   <i type="int" name="NBANDSGWLOW">     0</i>
  </separator>
  <separator name="vdW DFT" >
   <i type="logical" name="LUSE_VDW"> F  </i>
   <i name="Zab_VDW">     -0.84910000</i>
   <i name="PARAM1">      0.12340000</i>
   <i name="PARAM2">      1.00000000</i>
   <i name="PARAM3">      0.00000000</i>
  </separator>
  <separator name="model GW" >
   <i type="int" name="MODEL_GW">     0</i>
   <i name="MODEL_EPS0">      6.81253430</i>
   <i name="MODEL_ALPHA">      1.00000000</i>
  </separator>
  <separator name="linear response parameters" >
   <i type="logical" name="LEPSILON"> F  </i>
   <i type="logical" name="LRPA"> F  </i>
   <i type="logical" name="LNABLA"> F  </i>
   <i type="logical" name="LVEL"> F  </i>
   <i type="int" name="KINTER">     0</i>
   <i name="CSHIFT">      0.10000000</i>
   <i name="OMEGAMAX">     -1.00000000</i>
   <i name="DEG_THRESHOLD">      0.00200000</i>
   <i name="RTIME">     -0.10000000</i>
   <i name="WPLASMAI">      0.00000000</i>
   <v name="DFIELD">      0.00000000      0.00000000      0.00000000</v>
   <v name="WPLASMA">      0.00000000      0.00000000      0.00000000      0.00000000      0.00000000      0.00000000      0.00000000      0.00000000      0.00000000</v>
  </separator>
  <separator name="orbital magnetization" >
   <i type="logical" name="NUCIND"> F  </i>
   <v name="MAGPOS">      0.00000000      0.00000000      0.00000000</v>
   <i type="logical" name="LNICSALL"> T  </i>
   <i type="logical" name="ORBITALMAG"> F  </i>
   <i type="logical" name="LMAGBLOCH"> F  </i>
   <i type="logical" name="LCHIMAG"> F  </i>
   <i type="logical" name="LGAUGE"> T  </i>
   <i type="int" name="MAGATOM">     0</i>
   <v name="MAGDIPOL">      0.00000000      0.00000000      0.00000000</v>
   <v name="AVECCONST">      0.00000000      0.00000000      0.00000000</v>
  </separator>
  <separator name="response functions" >
   <i type="logical" name="LADDER"> F  </i>
   <i type="logical" name="LRPAFORCE"> F  </i>
   <i type="logical" name="LFXC"> F  </i>
   <i type="logical" name="LHARTREE"> T  </i>
   <i type="int" name="IBSE">     0</i>
   <v type="int" name="KPOINT">    -1     0     0     0</v>
   <i type="logical" name="LTCTE"> F  </i>
   <i type="logical" name="LTETE"> F  </i>
   <i type="logical" name="LTRIPLET"> F  </i>
   <i type="logical" name="LFXCEPS"> F  </i>
   <i type="logical" name="LFXHEG"> F  </i>
   <i type="int" name="NATURALO">     2</i>
   <i type="logical" name="L2ORDER"> F  </i>
   <i type="logical" name="LMP2LT"> F  </i>
   <i type="logical" name="LUSEW"> F  </i>
   <i name="ENCUTGW">     -2.00000000</i>
   <i name="ENCUTGWSOFT">     -2.00000000</i>
   <i name="ENCUTLF">     -1.00000000</i>
   <i type="int" name="LMAXMP2">    -1</i>
   <i name="SCISSOR">      0.00000000</i>
   <i type="int" name="NOMEGA">     0</i>
   <i type="int" name="NOMEGAR">     0</i>
   <i type="int" name="NBANDSGW">    -1</i>
   <i type="int" name="NBANDSO">    -1</i>
   <i type="int" name="NBANDSV">    -1</i>
   <i type="int" name="NELM">   100</i>
   <i type="int" name="NELMHF">     1</i>
   <i type="int" name="DIM">     3</i>
   <i type="int" name="ANTIRES">     0</i>
   <i name="OMEGAMAX">    -30.00000000</i>
   <i name="OMEGAMIN">    -30.00000000</i>
   <i name="OMEGATL">   -200.00000000</i>
   <i type="int" name="OMEGAGRID">   140</i>
   <i name="CSHIFT">     -0.10000000</i>
   <i type="logical" name="SELFENERGY"> F  </i>
   <i type="logical" name="LSPECTRAL"> F  </i>
   <i type="logical" name="LSPECTRALGW"> F  </i>
   <i type="logical" name="LSINGLES"> F  </i>
   <i type="logical" name="LFERMIGW"> F  </i>
   <i type="logical" name="ODDONLYGW"> F  </i>
   <i type="logical" name="EVENONLYGW"> F  </i>
   <i type="int" name="NKREDLFX">     1</i>
   <i type="int" name="NKREDLFY">     1</i>
   <i type="int" name="NKREDLFZ">     1</i>
   <i type="int" name="MAXMEM">  2800</i>
   <i type="int" name="TELESCOPE">     0</i>
   <i type="int" name="TAUPAR">     1</i>
   <i type="int" name="OMEGAPAR">    -1</i>
   <i name="LAMBDA">      1.00000000</i>
  </separator>
  <separator name="External order field" >
   <i name="OFIELD_KAPPA">      0.00000000</i>
   <v name="OFIELD_K">      0.00000000      0.00000000      0.00000000</v>
   <i name="OFIELD_Q6_NEAR">      0.00000000</i>
   <i name="OFIELD_Q6_FAR">      0.00000000</i>
   <i name="OFIELD_A">      0.00000000</i>
  </separator>
 </parameters>
 <atominfo>
  <atoms>      48 </atoms>
  <types>       3 </types>
  <array name="atoms" >
   <dimension dim="1">ion</dimension>
   <field type="string">element</field>
   <field type="int">atomtype</field>
   <set>
    <rc><c>O </c><c>   1</c></rc>
    <rc><c>O </c><c>   1</c></rc>
    <rc><c>O </c><c>   1</c></rc>
    <rc><c>O </c><c>   1</c></rc>
    <rc><c>O </c><c>   1</c></rc>
    <rc><c>O </c><c>   1</c></rc>
    <rc><c>O </c><c>   1</c></rc>
    <rc><c>O </c><c>   1</c></rc>
    <rc><c>O </c><c>   1</c></rc>
    <rc><c>O </c><c>   1</c></rc>
    <rc><c>O </c><c>   1</c></rc>
    <rc><c>O </c><c>   1</c></rc>
    <rc><c>O </c><c>   1</c></rc>
    <rc><c>O </c><c>   1</c></rc>
    <rc><c>O </c><c>   1</c></rc>
    <rc><c>O </c><c>   1</c></rc>
    <rc><c>O </c><c>   1</c></rc>
    <rc><c>O </c><c>   1</c></rc>
    <rc><c>O </c><c>   1</c></rc>
    <rc><c>O </c><c>   1</c></rc>
    <rc><c>O </c><c>   1</c></rc>
    <rc><c>O </c><c>   1</c></rc>
    <rc><c>O </c><c>   1</c></rc>
    <rc><c>O </c><c>   1</c></rc>
    <rc><c>O </c><c>   1</c></rc>
    <rc><c>O </c><c>   1</c></rc>
    <rc><c>O </c><c>   1</c></rc>
    <rc><c>O </c><c>   1</c></rc>
    <rc><c>O </c><c>   1</c></rc>
    <rc><c>O </c><c>   1</c></rc>
    <rc><c>O </c><c>   1</c></rc>
    <rc><c>O </c><c>   1</c></rc>
    <rc><c>Ti</c><c>   2</c></rc>
    <rc><c>Ti</c><c>   2</c></rc>
    <rc><c>Ti</c><c>   2</c></rc>
    <rc><c>Ti</c><c>   2</c></rc>
    <rc><c>Ti</c><c>   2</c></rc>
    <rc><c>Ti</c><c>   2</c></rc>
    <rc><c>Ti</c><c>   2</c></rc>
    <rc><c>Ti</c><c>   2</c></rc>
    <rc><c>Ti</c><c>   2</c></rc>
    <rc><c>Ti</c><c>   2</c></rc>
    <rc><c>Ti</c><c>   2</c></rc>
    <rc><c>Ti</c><c>   2</c></rc>
    <rc><c>Ti</c><c>   2</c></rc>
    <rc><c>Ti</c><c>   2</c></rc>
    <rc><c>Ti</c><c>   2</c></rc>
    <rc><c>U </c><c>   3</c></rc>
   </set>
  </array>
  <array name="atomtypes" >
   <dimension dim="1">type</dimension>
   <field type="int">atomspertype</field>
   <field type="string">element</field>
   <field>mass</field>
   <field>valence</field>
   <field type="string">pseudopotential</field>
   <set>
    <rc><c>  32</c><c>O </c><c>     16.00000000</c><c>      6.00000000</c><c>  PAW_PBE O 08Apr2002                   </c></rc>
    <rc><c>  15</c><c>Ti</c><c>     47.88000000</c><c>     12.00000000</c><c>  PAW_PBE Ti_sv 26Sep2005               </c></rc>
    <rc><c>   1</c><c>U </c><c>    238.02900000</c><c>     14.00000000</c><c>  PAW_PBE U 06Sep2000                   </c></rc>
   </set>
  </array>
 </atominfo>
 <structure name="initialpos" >
  <crystal>
   <varray name="basis" >
    <v>       7.56840000       0.00000000       0.00000000 </v>
    <v>       0.00000000       7.56840000       0.00000000 </v>
    <v>       0.00000000       0.00000000       9.51460000 </v>
   </varray>
   <i name="volume">    545.00274423 </i>
   <varray name="rec_basis" >
    <v>       0.13212832      -0.00000000      -0.00000000 </v>
    <v>       0.00000000       0.13212832      -0.00000000 </v>
    <v>       0.00000000       0.00000000       0.10510163 </v>
   </varray>
  </crystal>
  <varray name="positions" >
   <v>       0.00000000       0.00000000       0.20810000 </v>
   <v>       0.00000000       0.25000000       0.45810000 </v>
   <v>       0.25000000       0.25000000       0.70810000 </v>
   <v>       0.25000000       0.00000000       0.95810000 </v>
   <v>       0.00000000       0.25000000       0.04190000 </v>
   <v>       0.00000000       0.00000000       0.79190000 </v>
   <v>       0.25000000       0.00000000       0.54190000 </v>
   <v>       0.25000000       0.25000000       0.29190000 </v>
   <v>       0.50000000       0.00000000       0.20810000 </v>
   <v>       0.50000000       0.25000000       0.45810000 </v>
   <v>       0.75000000       0.25000000       0.70810000 </v>
   <v>       0.75000000       0.00000000       0.95810000 </v>
   <v>       0.50000000       0.25000000       0.04190000 </v>
   <v>       0.50000000       0.00000000       0.79190000 </v>
   <v>       0.75000000       0.00000000       0.54190000 </v>
   <v>       0.75000000       0.25000000       0.29190000 </v>
   <v>       0.00000000       0.50000000       0.20810000 </v>
   <v>       0.00000000       0.75000000       0.45810000 </v>
   <v>       0.25000000       0.75000000       0.70810000 </v>
   <v>       0.25000000       0.50000000       0.95810000 </v>
   <v>       0.00000000       0.75000000       0.04190000 </v>
   <v>       0.00000000       0.50000000       0.79190000 </v>
   <v>       0.25000000       0.50000000       0.54190000 </v>
   <v>       0.25000000       0.75000000       0.29190000 </v>
   <v>       0.50000000       0.50000000       0.20810000 </v>
   <v>       0.50000000       0.75000000       0.45810000 </v>
   <v>       0.75000000       0.75000000       0.70810000 </v>
   <v>       0.75000000       0.50000000       0.95810000 </v>
   <v>       0.50000000       0.75000000       0.04190000 </v>
   <v>       0.50000000       0.50000000       0.79190000 </v>
   <v>       0.75000000       0.50000000       0.54190000 </v>
   <v>       0.75000000       0.75000000       0.29190000 </v>
   <v>       0.00000000       0.25000000       0.25000000 </v>
   <v>       0.25000000       0.25000000       0.50000000 </v>
   <v>       0.25000000       0.00000000       0.75000000 </v>
   <v>       0.50000000       0.00000000       0.00000000 </v>
   <v>       0.50000000       0.25000000       0.25000000 </v>
   <v>       0.75000000       0.25000000       0.50000000 </v>
   <v>       0.75000000       0.00000000       0.75000000 </v>
   <v>       0.00000000       0.50000000       0.00000000 </v>
   <v>       0.00000000       0.75000000       0.25000000 </v>
   <v>       0.25000000       0.75000000       0.50000000 </v>
   <v>       0.25000000       0.50000000       0.75000000 </v>
   <v>       0.50000000       0.50000000       0.00000000 </v>
   <v>       0.50000000       0.75000000       0.25000000 </v>
   <v>       0.75000000       0.75000000       0.50000000 </v>
   <v>       0.75000000       0.50000000       0.75000000 </v>
   <v>       0.00000000       0.00000000       0.00000000 </v>
  </varray>
 </structure>
 <calculation>
  <scstep>
   <time name="dav">  234.04  233.97</time>
   <time name="total">  234.31  234.27</time>
   <energy>
    <i name="alphaZ">   1542.39140451 </i>
    <i name="ewald"> -26918.09245894 </i>
    <i name="hartreedc"> -11385.73198371 </i>
    <i name="XCdc">   1863.51901040 </i>
    <i name="pawpsdc">  31196.30553970 </i>
    <i name="pawaedc"> -30939.99431688 </i>
    <i name="eentropy">     -0.30669574 </i>
    <i name="bandstr">   1541.16453302 </i>
    <i name="atom">  39061.97863081 </i>
    <i name="e_fr_energy">   5961.23366317 </i>
    <i name="e_wo_entrp">   5961.54035891 </i>
    <i name="e_0_energy">   5961.38701104 </i>
   </energy>
  </scstep>
  <scstep>
   <time name="dav">  234.15  234.09</time>
   <time name="total">  234.17  234.11</time>
   <energy>
    <i name="e_fr_energy">    613.91345467 </i>
    <i name="e_wo_entrp">    614.09061253 </i>
    <i name="e_0_energy">    614.00203360 </i>
   </energy>
  </scstep>
  <scstep>
   <time name="dav">  278.62  278.56</time>
   <time name="total">  278.63  278.58</time>
   <energy>
    <i name="e_fr_energy">   -451.69748106 </i>
    <i name="e_wo_entrp">   -451.52352468 </i>
    <i name="e_0_energy">   -451.61050287 </i>
   </energy>
  </scstep>
  <scstep>
   <time name="dav">  319.51  319.43</time>
   <time name="total">  319.52  319.45</time>
   <energy>
    <i name="e_fr_energy">   -543.29714472 </i>
    <i name="e_wo_entrp">   -543.11700030 </i>
    <i name="e_0_energy">   -543.20707251 </i>
   </energy>
  </scstep>
  <scstep>
   <time name="dav">  313.94  313.86</time>
   <time name="total">  320.89  320.80</time>
   <energy>
    <i name="e_fr_energy">   -547.91430362 </i>
    <i name="e_wo_entrp">   -547.73349208 </i>
    <i name="e_0_energy">   -547.82389785 </i>
   </energy>
  </scstep>
  <scstep>
   <time name="dav">  316.26  316.14</time>
   <time name="total">  324.01  323.90</time>
   <energy>
    <i name="e_fr_energy">   -404.73554748 </i>
    <i name="e_wo_entrp">   -404.53263152 </i>
    <i name="e_0_energy">   -404.63408950 </i>
   </energy>
  </scstep>
  <scstep>
   <time name="dav">  298.03  297.96</time>
   <time name="total">  305.18  305.11</time>
   <energy>
    <i name="e_fr_energy">   -429.37698423 </i>
    <i name="e_wo_entrp">   -429.23451832 </i>
    <i name="e_0_energy">   -429.30575127 </i>
   </energy>
  </scstep>
  <scstep>
   <time name="dav">  306.88  306.83</time>
   <time name="total">  314.78  314.72</time>
   <energy>
    <i name="e_fr_energy">   -432.10522670 </i>
    <i name="e_wo_entrp">   -431.92021853 </i>
    <i name="e_0_energy">   -432.01272261 </i>
   </energy>
  </scstep>
  <scstep>
   <time name="dav">  326.40  326.29</time>
   <time name="total">  334.24  334.13</time>
   <energy>
    <i name="e_fr_energy">   -431.14212177 </i>
    <i name="e_wo_entrp">   -430.93942285 </i>
    <i name="e_0_energy">   -431.04077231 </i>
   </energy>
  </scstep>
  <scstep>
   <time name="dav">  313.01  312.90</time>
   <time name="total">  320.75  320.65</time>
   <energy>
    <i name="e_fr_energy">   -431.28144146 </i>
    <i name="e_wo_entrp">   -431.10101281 </i>
    <i name="e_0_energy">   -431.19122713 </i>
   </energy>
  </scstep>
  <scstep>
   <time name="dav">  301.54  301.47</time>
   <time name="total">  309.66  309.59</time>
   <energy>
    <i name="e_fr_energy">   -431.05488511 </i>
    <i name="e_wo_entrp">   -430.85336291 </i>
    <i name="e_0_energy">   -430.95412401 </i>
   </energy>
  </scstep>
  <scstep>
   <time name="dav">  312.22  312.18</time>
   <time name="total">  320.05  320.02</time>
   <energy>
    <i name="e_fr_energy">   -431.04403900 </i>
    <i name="e_wo_entrp">   -430.84610169 </i>
    <i name="e_0_energy">   -430.94507035 </i>
   </energy>
  </scstep>
  <scstep>
   <time name="dav">  313.62  313.59</time>
   <time name="total">  321.62  321.59</time>
   <energy>
    <i name="e_fr_energy">   -431.04772182 </i>
    <i name="e_wo_entrp">   -430.84876677 </i>
    <i name="e_0_energy">   -430.94824429 </i>
   </energy>
  </scstep>
  <scstep>
   <time name="dav">  308.53  308.52</time>
   <time name="total">  316.46  316.46</time>
   <energy>
    <i name="e_fr_energy">   -431.04677923 </i>
    <i name="e_wo_entrp">   -430.84939770 </i>
    <i name="e_0_energy">   -430.94808846 </i>
   </energy>
  </scstep>
  <scstep>
   <time name="dav">  315.24  315.13</time>
   <time name="total">  323.29  323.18</time>
   <energy>
    <i name="e_fr_energy">   -431.04715016 </i>
    <i name="e_wo_entrp">   -430.85021068 </i>
    <i name="e_0_energy">   -430.94868042 </i>
   </energy>
  </scstep>
  <scstep>
   <time name="dav">  315.11  315.02</time>
   <time name="total">  323.15  323.06</time>
   <energy>
    <i name="e_fr_energy">   -431.04753042 </i>
    <i name="e_wo_entrp">   -430.85225048 </i>
    <i name="e_0_energy">   -430.94989045 </i>
   </energy>
  </scstep>
  <scstep>
   <time name="dav">  328.74  328.70</time>
   <time name="total">  336.74  336.70</time>
   <energy>
    <i name="e_fr_energy">   -431.04779074 </i>
    <i name="e_wo_entrp">   -430.85336575 </i>
    <i name="e_0_energy">   -430.95057825 </i>
   </energy>
  </scstep>
  <scstep>
   <time name="dav">  330.51  330.41</time>
   <time name="total">  338.52  338.42</time>
   <energy>
    <i name="e_fr_energy">   -431.04824721 </i>
    <i name="e_wo_entrp">   -430.85615626 </i>
    <i name="e_0_energy">   -430.95220173 </i>
   </energy>
  </scstep>
  <scstep>
   <time name="dav">  321.50  321.44</time>
   <time name="total">  329.51  329.45</time>
   <energy>
    <i name="e_fr_energy">   -431.04873466 </i>
    <i name="e_wo_entrp">   -430.86092715 </i>
    <i name="e_0_energy">   -430.95483091 </i>
   </energy>
  </scstep>
  <scstep>
   <time name="dav">  322.70  322.60</time>
   <time name="total">  330.75  330.65</time>
   <energy>
    <i name="e_fr_energy">   -431.04885931 </i>
    <i name="e_wo_entrp">   -430.86201404 </i>
    <i name="e_0_energy">   -430.95543668 </i>
   </energy>
  </scstep>
  <scstep>
   <time name="dav">  310.73  310.63</time>
   <time name="total">  318.76  318.66</time>
   <energy>
    <i name="e_fr_energy">   -431.04887048 </i>
    <i name="e_wo_entrp">   -430.86223037 </i>
    <i name="e_0_energy">   -430.95555042 </i>
   </energy>
  </scstep>
  <scstep>
   <time name="dav">  289.82  289.73</time>
   <time name="total">  290.07  289.99</time>
   <energy>
    <i name="alphaZ">   1542.39140451 </i>
    <i name="ewald"> -26918.09245894 </i>
    <i name="hartreedc"> -11405.86485453 </i>
    <i name="XCdc">   1873.45041291 </i>
    <i name="pawpsdc">  47668.53994004 </i>
    <i name="pawaedc"> -47362.02295474 </i>
    <i name="eentropy">     -0.18612257 </i>
    <i name="bandstr">  -4891.24287093 </i>
    <i name="atom">  39061.97863081 </i>
    <i name="e_fr_energy">   -431.04887343 </i>
    <i name="e_wo_entrp">   -430.86275086 </i>
    <i name="e_0_energy">   -430.95581215 </i>
   </energy>
  </scstep>
  <structure>
   <crystal>
    <varray name="basis" >
     <v>       7.56840000       0.00000000       0.00000000 </v>
     <v>       0.00000000       7.56840000       0.00000000 </v>
     <v>       0.00000000       0.00000000       9.51460000 </v>
    </varray>
    <i name="volume">    545.00274423 </i>
    <varray name="rec_basis" >
     <v>       0.13212832      -0.00000000      -0.00000000 </v>
     <v>       0.00000000       0.13212832      -0.00000000 </v>
     <v>       0.00000000       0.00000000       0.10510163 </v>
    </varray>
   </crystal>
   <varray name="positions" >
    <v>       0.00000000       0.00000000       0.20810000 </v>
    <v>       0.00000000       0.25000000       0.45810000 </v>
    <v>       0.25000000       0.25000000       0.70810000 </v>
    <v>       0.25000000       0.00000000       0.95810000 </v>
    <v>       0.00000000       0.25000000       0.04190000 </v>
    <v>       0.00000000       0.00000000       0.79190000 </v>
    <v>       0.25000000       0.00000000       0.54190000 </v>
    <v>       0.25000000       0.25000000       0.29190000 </v>
    <v>       0.50000000       0.00000000       0.20810000 </v>
    <v>       0.50000000       0.25000000       0.45810000 </v>
    <v>       0.75000000       0.25000000       0.70810000 </v>
    <v>       0.75000000       0.00000000       0.95810000 </v>
    <v>       0.50000000       0.25000000       0.04190000 </v>
    <v>       0.50000000       0.00000000       0.79190000 </v>
    <v>       0.75000000       0.00000000       0.54190000 </v>
    <v>       0.75000000       0.25000000       0.29190000 </v>
    <v>       0.00000000       0.50000000       0.20810000 </v>
    <v>       0.00000000       0.75000000       0.45810000 </v>
    <v>       0.25000000       0.75000000       0.70810000 </v>
    <v>       0.25000000       0.50000000       0.95810000 </v>
    <v>       0.00000000       0.75000000       0.04190000 </v>
    <v>       0.00000000       0.50000000       0.79190000 </v>
    <v>       0.25000000       0.50000000       0.54190000 </v>
    <v>       0.25000000       0.75000000       0.29190000 </v>
    <v>       0.50000000       0.50000000       0.20810000 </v>
    <v>       0.50000000       0.75000000       0.45810000 </v>
    <v>       0.75000000       0.75000000       0.70810000 </v>
    <v>       0.75000000       0.50000000       0.95810000 </v>
    <v>       0.50000000       0.75000000       0.04190000 </v>
    <v>       0.50000000       0.50000000       0.79190000 </v>
    <v>       0.75000000       0.50000000       0.54190000 </v>
    <v>       0.75000000       0.75000000       0.29190000 </v>
    <v>       0.00000000       0.25000000       0.25000000 </v>
    <v>       0.25000000       0.25000000       0.50000000 </v>
    <v>       0.25000000       0.00000000       0.75000000 </v>
    <v>       0.50000000       0.00000000       0.00000000 </v>
    <v>       0.50000000       0.25000000       0.25000000 </v>
    <v>       0.75000000       0.25000000       0.50000000 </v>
    <v>       0.75000000       0.00000000       0.75000000 </v>
    <v>       0.00000000       0.50000000       0.00000000 </v>
    <v>       0.00000000       0.75000000       0.25000000 </v>
    <v>       0.25000000       0.75000000       0.50000000 </v>
    <v>       0.25000000       0.50000000       0.75000000 </v>
    <v>       0.50000000       0.50000000       0.00000000 </v>
    <v>       0.50000000       0.75000000       0.25000000 </v>
    <v>       0.75000000       0.75000000       0.50000000 </v>
    <v>       0.75000000       0.50000000       0.75000000 </v>
    <v>       0.00000000       0.00000000       0.00000000 </v>
   </varray>
  </structure>
  <varray name="forces" >
   <v>       0.00000000       0.00000000       3.13776608 </v>
   <v>      -0.00000000      -0.08556441      -0.13568165 </v>
   <v>      -0.13953440      -0.20543247       0.36418683 </v>
   <v>       3.79129079      -0.00000000      -0.26837024 </v>
   <v>       0.00000000       3.79129079       0.26837024 </v>
   <v>      -0.00000000      -0.00000000      -3.13776608 </v>
   <v>      -0.08556441       0.00000000       0.13568165 </v>
   <v>      -0.20543247      -0.13953440      -0.36418683 </v>
   <v>      -0.00000000      -0.00000000      -0.11437282 </v>
   <v>       0.00000000      -0.03038163       0.12912193 </v>
   <v>       0.13953440      -0.20543247       0.36418683 </v>
   <v>      -3.79129079      -0.00000000      -0.26837024 </v>
   <v>      -0.00000000      -0.28740251      -0.32063516 </v>
   <v>       0.00000000       0.00000000       0.14308830 </v>
   <v>       0.08556441       0.00000000       0.13568165 </v>
   <v>       0.20543247      -0.13953440      -0.36418683 </v>
   <v>      -0.00000000      -0.00000000      -0.14308830 </v>
   <v>      -0.00000000       0.08556441      -0.13568165 </v>
   <v>      -0.13953440       0.20543247       0.36418683 </v>
   <v>      -0.28740251       0.00000000       0.32063516 </v>
   <v>      -0.00000000      -3.79129079       0.26837024 </v>
   <v>       0.00000000       0.00000000       0.11437282 </v>
   <v>      -0.03038163      -0.00000000      -0.12912193 </v>
   <v>      -0.20543247       0.13953440      -0.36418683 </v>
   <v>       0.00000000      -0.00000000       0.09436481 </v>
   <v>       0.00000000       0.03038163       0.12912193 </v>
   <v>       0.13953440       0.20543247       0.36418683 </v>
   <v>       0.28740251       0.00000000       0.32063516 </v>
   <v>      -0.00000000       0.28740251      -0.32063516 </v>
   <v>      -0.00000000      -0.00000000      -0.09436481 </v>
   <v>       0.03038163      -0.00000000      -0.12912193 </v>
   <v>       0.20543247       0.13953440      -0.36418683 </v>
   <v>       0.00000000       1.66832878       2.17300485 </v>
   <v>       0.15543864       0.15543864       0.00000000 </v>
   <v>       1.66832878      -0.00000000      -2.17300485 </v>
   <v>       0.00000000       0.00000000       0.49064742 </v>
   <v>       0.00000000       0.25947930       0.27230917 </v>
   <v>      -0.15543864       0.15543864       0.00000000 </v>
   <v>      -1.66832878      -0.00000000      -2.17300485 </v>
   <v>      -0.00000000      -0.00000000      -0.49064742 </v>
   <v>       0.00000000      -1.66832878       2.17300485 </v>
   <v>       0.15543864      -0.15543864       0.00000000 </v>
   <v>       0.25947930      -0.00000000      -0.27230917 </v>
   <v>      -0.00000000      -0.00000000       0.00000000 </v>
   <v>       0.00000000      -0.25947930       0.27230917 </v>
   <v>      -0.15543864      -0.15543864       0.00000000 </v>
   <v>      -0.25947930      -0.00000000      -0.27230917 </v>
   <v>      -0.00000000      -0.00000000       0.00000000 </v>
  </varray>
  <varray name="stress" >
   <v>     136.27853548       0.00000000       0.00000000 </v>
   <v>       0.00000000     136.27853548       0.00000000 </v>
   <v>       0.00000000       0.00000000     139.69208505 </v>
  </varray>
  <energy>
   <i name="e_fr_energy">   -431.04887343 </i>
   <i name="e_wo_entrp">   -430.95581215 </i>
   <i name="e_0_energy">     -0.18612257 </i>
  </energy>
  <time name="totalsc"> 7944.45 7942.50</time>
 </calculation>
 <calculation>
  <scstep>
   <time name="dav">  264.65  264.57</time>
   <time name="total">  272.43  272.37</time>
   <energy>
    <i name="alphaZ">   1343.93770551 </i>
    <i name="ewald"> -25711.97675040 </i>
    <i name="hartreedc"> -10914.02812707 </i>
    <i name="XCdc">   1792.79615980 </i>
    <i name="pawpsdc">  47668.73350144 </i>
    <i name="pawaedc"> -47362.21435224 </i>
    <i name="eentropy">     -0.21016783 </i>
    <i name="bandstr">  -6343.86923804 </i>
    <i name="atom">  39061.97863081 </i>
    <i name="e_fr_energy">   -464.85263802 </i>
    <i name="e_wo_entrp">   -464.64247019 </i>
    <i name="e_0_energy">   -464.74755410 </i>
   </energy>
  </scstep>
  <scstep>
   <time name="dav">  292.38  292.31</time>
   <time name="total">  300.40  300.33</time>
   <energy>
    <i name="e_fr_energy">   -455.65481575 </i>
    <i name="e_wo_entrp">   -455.33892459 </i>
    <i name="e_0_energy">   -455.49687017 </i>
   </energy>
  </scstep>
  <scstep>
   <time name="dav">  300.44  300.35</time>
   <time name="total">  308.01  307.92</time>
   <energy>
    <i name="e_fr_energy">   -433.24210348 </i>
    <i name="e_wo_entrp">   -433.04397298 </i>
    <i name="e_0_energy">   -433.14303823 </i>
   </energy>
  </scstep>
  <scstep>
   <time name="dav">  293.66  293.56</time>
   <time name="total">  301.57  301.47</time>
   <energy>
    <i name="e_fr_energy">   -434.37565680 </i>
    <i name="e_wo_entrp">   -434.12491385 </i>
    <i name="e_0_energy">   -434.25028533 </i>
   </energy>
  </scstep>
  <scstep>
   <time name="dav">  309.63  309.53</time>
   <time name="total">  318.07  317.97</time>
   <energy>
    <i name="e_fr_energy">   -430.34904608 </i>
    <i name="e_wo_entrp">   -430.09735631 </i>
    <i name="e_0_energy">   -430.22320120 </i>
   </energy>
  </scstep>
  <scstep>
   <time name="dav">  304.27  304.21</time>
   <time name="total">  312.01  311.94</time>
   <energy>
    <i name="e_fr_energy">   -430.38965756 </i>
    <i name="e_wo_entrp">   -430.17154470 </i>
    <i name="e_0_energy">   -430.28060113 </i>
   </energy>
  </scstep>
  <scstep>
   <time name="dav">  294.99  294.88</time>
   <time name="total">  303.34  303.23</time>
   <energy>
    <i name="e_fr_energy">   -430.16748156 </i>
    <i name="e_wo_entrp">   -429.96341839 </i>
    <i name="e_0_energy">   -430.06544997 </i>
   </energy>
  </scstep>
  <scstep>
   <time name="dav">  315.55  315.50</time>
   <time name="total">  323.87  323.81</time>
   <energy>
    <i name="e_fr_energy">   -430.41621114 </i>
    <i name="e_wo_entrp">   -430.24524734 </i>
    <i name="e_0_energy">   -430.33072924 </i>
   </energy>
  </scstep>
  <scstep>
   <time name="dav">  303.06  303.00</time>
   <time name="total">  311.21  311.16</time>
   <energy>
    <i name="e_fr_energy">   -430.73548914 </i>
    <i name="e_wo_entrp">   -430.50082000 </i>
    <i name="e_0_energy">   -430.61815457 </i>
   </energy>
  </scstep>
  <scstep>
   <time name="dav">  302.06  302.02</time>
   <time name="total">  310.27  310.22</time>
   <energy>
    <i name="e_fr_energy">   -430.74507347 </i>
    <i name="e_wo_entrp">   -430.51307310 </i>
    <i name="e_0_energy">   -430.62907329 </i>
   </energy>
  </scstep>
  <scstep>
   <time name="dav">  295.93  295.86</time>
   <time name="total">  304.32  304.25</time>
   <energy>
    <i name="e_fr_energy">   -430.63415920 </i>
    <i name="e_wo_entrp">   -430.46096171 </i>
    <i name="e_0_energy">   -430.54756045 </i>
   </energy>
  </scstep>
  <scstep>
   <time name="dav">  306.47  306.37</time>
   <time name="total">  314.87  314.76</time>
   <energy>
    <i name="e_fr_energy">   -430.62445180 </i>
    <i name="e_wo_entrp">   -430.47168861 </i>
    <i name="e_0_energy">   -430.54807021 </i>
   </energy>
  </scstep>
  <scstep>
   <time name="dav">  301.70  301.59</time>
   <time name="total">  310.06  309.95</time>
   <energy>
    <i name="e_fr_energy">   -430.60200961 </i>
    <i name="e_wo_entrp">   -430.45240228 </i>
    <i name="e_0_energy">   -430.52720594 </i>
   </energy>
  </scstep>
  <scstep>
   <time name="dav">  307.56  307.46</time>
   <time name="total">  315.93  315.82</time>
   <energy>
    <i name="e_fr_energy">   -430.60310930 </i>
    <i name="e_wo_entrp">   -430.44854066 </i>
    <i name="e_0_energy">   -430.52582498 </i>
   </energy>
  </scstep>
  <scstep>
   <time name="dav">  301.08  301.00</time>
   <time name="total">  309.42  309.34</time>
   <energy>
    <i name="e_fr_energy">   -430.60288140 </i>
    <i name="e_wo_entrp">   -430.44965761 </i>
    <i name="e_0_energy">   -430.52626951 </i>
   </energy>
  </scstep>
  <scstep>
   <time name="dav">  298.65  298.57</time>
   <time name="total">  307.02  306.93</time>
   <energy>
    <i name="e_fr_energy">   -430.60288858 </i>
    <i name="e_wo_entrp">   -430.44966835 </i>
    <i name="e_0_energy">   -430.52627847 </i>
   </energy>
  </scstep>
  <scstep>
   <time name="dav">  285.90  285.86</time>
   <time name="total">  286.15  286.11</time>
   <energy>
    <i name="alphaZ">   1343.93770551 </i>
    <i name="ewald"> -25711.97675040 </i>
    <i name="hartreedc"> -11906.28601928 </i>
    <i name="XCdc">   1850.09764560 </i>
    <i name="pawpsdc">  40778.24011486 </i>
    <i name="pawaedc"> -40503.74290512 </i>
    <i name="eentropy">     -0.15317067 </i>
    <i name="bandstr">  -5342.69813772 </i>
    <i name="atom">  39061.97863081 </i>
    <i name="e_fr_energy">   -430.60288640 </i>
    <i name="e_wo_entrp">   -430.44971573 </i>
    <i name="e_0_energy">   -430.52630107 </i>
   </energy>
  </scstep>
  <structure>
   <crystal>
    <varray name="basis" >
     <v>       7.92102216       0.00000000       0.00000000 </v>
     <v>       0.00000000       7.92102216       0.00000000 </v>
     <v>       0.00000000       0.00000000       9.96900217 </v>
    </varray>
    <i name="volume">    625.48103583 </i>
    <varray name="rec_basis" >
     <v>       0.12624633      -0.00000000      -0.00000000 </v>
     <v>      -0.00000000       0.12624633      -0.00000000 </v>
     <v>      -0.00000000      -0.00000000       0.10031094 </v>
    </varray>
   </crystal>
   <varray name="positions" >
    <v>      -0.00000000      -0.00000000       0.22400967 </v>
    <v>      -0.00000000       0.24945459       0.45741204 </v>
    <v>       0.24911058       0.24869053       0.70994657 </v>
    <v>       0.27416653      -0.00000000       0.95673926 </v>
    <v>       0.00000000       0.27416653       0.04326074 </v>
    <v>      -0.00000000      -0.00000000       0.77599033 </v>
    <v>       0.24945459      -0.00000000       0.54258796 </v>
    <v>       0.24869053       0.24911058       0.29005343 </v>
    <v>       0.50000000      -0.00000000       0.20752009 </v>
    <v>       0.50000000       0.24980634       0.45875470 </v>
    <v>       0.75088942       0.24869053       0.70994657 </v>
    <v>       0.72583347      -0.00000000       0.95673926 </v>
    <v>       0.50000000       0.24816803       0.04027426 </v>
    <v>       0.50000000      -0.00000000       0.79262551 </v>
    <v>       0.75054541      -0.00000000       0.54258796 </v>
    <v>       0.75130947       0.24911058       0.29005343 </v>
    <v>      -0.00000000       0.50000000       0.20737449 </v>
    <v>      -0.00000000       0.75054541       0.45741204 </v>
    <v>       0.24911058       0.75130947       0.70994657 </v>
    <v>       0.24816803       0.50000000       0.95972574 </v>
    <v>       0.00000000       0.72583347       0.04326074 </v>
    <v>      -0.00000000       0.50000000       0.79247991 </v>
    <v>       0.24980634       0.50000000       0.54124530 </v>
    <v>       0.24869053       0.75088942       0.29005343 </v>
    <v>       0.50000000       0.50000000       0.20857847 </v>
    <v>       0.50000000       0.75019366       0.45875470 </v>
    <v>       0.75088942       0.75130947       0.70994657 </v>
    <v>       0.75183197       0.50000000       0.95972574 </v>
    <v>       0.50000000       0.75183197       0.04027426 </v>
    <v>       0.50000000       0.50000000       0.79142153 </v>
    <v>       0.75019366       0.50000000       0.54124530 </v>
    <v>       0.75130947       0.75088942       0.29005343 </v>
    <v>      -0.00000000       0.26063430       0.26101796 </v>
    <v>       0.25099080       0.25099080       0.50000000 </v>
    <v>       0.26063430      -0.00000000       0.73898204 </v>
    <v>       0.50000000      -0.00000000       0.00248777 </v>
    <v>       0.50000000       0.25165398       0.25138071 </v>
    <v>       0.74900920       0.25099080       0.50000000 </v>
    <v>       0.73936570      -0.00000000       0.73898204 </v>
    <v>       0.00000000       0.50000000      -0.00248777 </v>
    <v>       0.00000000       0.73936570       0.26101796 </v>
    <v>       0.25099080       0.74900920       0.50000000 </v>
    <v>       0.25165398       0.50000000       0.74861929 </v>
    <v>       0.50000000       0.50000000       0.00000000 </v>
    <v>       0.50000000       0.74834602       0.25138071 </v>
    <v>       0.74900920       0.74900920       0.50000000 </v>
    <v>       0.74834602       0.50000000       0.74861929 </v>
    <v>      -0.00000000      -0.00000000       0.00000000 </v>
   </varray>
  </structure>
  <varray name="forces" >
   <v>      -0.00000000      -0.00000000      -1.62808862 </v>
   <v>      -0.00000000       0.17608228      -0.32337056 </v>
   <v>       0.14578052       0.20752034      -0.87650688 </v>
   <v>      -2.74870220      -0.00000000      -0.69228153 </v>
   <v>      -0.00000000      -2.74870220       0.69228153 </v>
   <v>       0.00000000       0.00000000       1.62808862 </v>
   <v>       0.17608228       0.00000000       0.32337056 </v>
   <v>       0.20752034       0.14578052       0.87650688 </v>
   <v>      -0.00000000       0.00000000      -0.10572740 </v>
   <v>      -0.00000000      -0.01817094      -0.48749044 </v>
   <v>      -0.14578052       0.20752034      -0.87650688 </v>
   <v>       2.74870220      -0.00000000      -0.69228153 </v>
   <v>       0.00000000       0.75879295       0.97937775 </v>
   <v>      -0.00000000      -0.00000000      -0.93685370 </v>
   <v>      -0.17608228       0.00000000       0.32337056 </v>
   <v>      -0.20752034       0.14578052       0.87650688 </v>
   <v>       0.00000000       0.00000000       0.93685370 </v>
   <v>      -0.00000000      -0.17608228      -0.32337056 </v>
   <v>       0.14578052      -0.20752034      -0.87650688 </v>
   <v>       0.75879295      -0.00000000      -0.97937775 </v>
   <v>       0.00000000       2.74870220       0.69228153 </v>
   <v>       0.00000000       0.00000000       0.10572740 </v>
   <v>      -0.01817094       0.00000000       0.48749044 </v>
   <v>       0.20752034      -0.14578052       0.87650688 </v>
   <v>      -0.00000000      -0.00000000      -0.45269303 </v>
   <v>      -0.00000000       0.01817094      -0.48749044 </v>
   <v>      -0.14578052      -0.20752034      -0.87650688 </v>
   <v>      -0.75879295      -0.00000000      -0.97937775 </v>
   <v>       0.00000000      -0.75879295       0.97937775 </v>
   <v>       0.00000000       0.00000000       0.45269303 </v>
   <v>       0.01817094       0.00000000       0.48749044 </v>
   <v>      -0.20752034      -0.14578052       0.87650688 </v>
   <v>       0.00000000       0.09259939       0.11898144 </v>
   <v>       0.24301286       0.24301286      -0.00000000 </v>
   <v>       0.09259939       0.00000000      -0.11898144 </v>
   <v>       0.00000000       0.00000000       1.13037193 </v>
   <v>      -0.00000000      -0.24185508      -0.55252701 </v>
   <v>      -0.24301286       0.24301286      -0.00000000 </v>
   <v>      -0.09259939       0.00000000      -0.11898144 </v>
   <v>      -0.00000000      -0.00000000      -1.13037193 </v>
   <v>      -0.00000000      -0.09259939       0.11898144 </v>
   <v>       0.24301286      -0.24301286      -0.00000000 </v>
   <v>      -0.24185508       0.00000000       0.55252701 </v>
   <v>      -0.00000000       0.00000000      -0.00000000 </v>
   <v>      -0.00000000       0.24185508      -0.55252701 </v>
   <v>      -0.24301286      -0.24301286      -0.00000000 </v>
   <v>       0.24185508       0.00000000       0.55252701 </v>
   <v>      -0.00000000       0.00000000      -0.00000000 </v>
  </varray>
  <varray name="stress" >
   <v>    -140.03063712      -0.00000000      -0.00000000 </v>
   <v>      -0.00000000    -140.03063712      -0.00000000 </v>
   <v>      -0.00000000      -0.00000000    -161.63895401 </v>
  </varray>
  <energy>
   <i name="e_fr_energy">   -430.60288640 </i>
   <i name="e_wo_entrp">   -430.52630107 </i>
   <i name="e_0_energy">     -0.15317067 </i>
  </energy>
  <time name="totalsc"> 6308.60 6306.99</time>
 </calculation>
 <calculation>
  <scstep>
   <time name="dav">  259.12  259.05</time>
   <time name="total">  266.99  266.95</time>
   <energy>
    <i name="alphaZ">   1447.03761377 </i>
    <i name="ewald"> -26378.33888771 </i>
    <i name="hartreedc"> -12172.75020395 </i>
    <i name="XCdc">   1894.30126342 </i>
    <i name="pawpsdc">  40777.95429300 </i>
    <i name="pawaedc"> -40503.52057458 </i>
    <i name="eentropy">     -0.17100612 </i>
    <i name="bandstr">  -4573.17530175 </i>
    <i name="atom">  39061.97863081 </i>
    <i name="e_fr_energy">   -446.68417310 </i>
    <i name="e_wo_entrp">   -446.51316698 </i>
    <i name="e_0_energy">   -446.59867004 </i>
   </energy>
  </scstep>
  <scstep>
   <time name="dav">  279.39  279.32</time>
   <time name="total">  287.01  286.94</time>
   <energy>
    <i name="e_fr_energy">   -436.78252926 </i>
    <i name="e_wo_entrp">   -436.60229917 </i>
    <i name="e_0_energy">   -436.69241422 </i>
   </energy>
  </scstep>
  <scstep>
   <time name="dav">  310.35  310.31</time>
   <time name="total">  318.54  318.51</time>
   <energy>
    <i name="e_fr_energy">   -439.28870370 </i>
    <i name="e_wo_entrp">   -439.07524574 </i>
    <i name="e_0_energy">   -439.18197472 </i>
   </energy>
  </scstep>
  <scstep>
   <time name="dav">  314.37  314.27</time>
   <time name="total">  322.78  322.68</time>
   <energy>
    <i name="e_fr_energy">   -434.47802232 </i>
    <i name="e_wo_entrp">   -434.25895152 </i>
    <i name="e_0_energy">   -434.36848692 </i>
   </energy>
  </scstep>
  <scstep>
   <time name="dav">  314.27  314.17</time>
   <time name="total">  322.10  322.00</time>
   <energy>
    <i name="e_fr_energy">   -433.65010673 </i>
    <i name="e_wo_entrp">   -433.45650988 </i>
    <i name="e_0_energy">   -433.55330830 </i>
   </energy>
  </scstep>
  <scstep>
   <time name="dav">  305.27  305.17</time>
   <time name="total">  313.69  313.58</time>
   <energy>
    <i name="e_fr_energy">   -433.49397654 </i>
    <i name="e_wo_entrp">   -433.28543395 </i>
    <i name="e_0_energy">   -433.38970524 </i>
   </energy>
  </scstep>
  <scstep>
   <time name="dav">  300.33  300.23</time>
   <time name="total">  308.78  308.68</time>
   <energy>
    <i name="e_fr_energy">   -433.53064132 </i>
    <i name="e_wo_entrp">   -433.36000329 </i>
    <i name="e_0_energy">   -433.44532230 </i>
   </energy>
  </scstep>
  <scstep>
   <time name="dav">  314.50  314.49</time>
   <time name="total">  322.95  322.94</time>
   <energy>
    <i name="e_fr_energy">   -433.54668753 </i>
    <i name="e_wo_entrp">   -433.38259498 </i>
    <i name="e_0_energy">   -433.46464125 </i>
   </energy>
  </scstep>
  <scstep>
   <time name="dav">  319.51  319.47</time>
   <time name="total">  327.95  327.90</time>
   <energy>
    <i name="e_fr_energy">   -433.62279203 </i>
    <i name="e_wo_entrp">   -433.48667649 </i>
    <i name="e_0_energy">   -433.55473426 </i>
   </energy>
  </scstep>
  <scstep>
   <time name="dav">  337.25  337.16</time>
   <time name="total">  345.68  345.59</time>
   <energy>
    <i name="e_fr_energy">   -433.64151753 </i>
    <i name="e_wo_entrp">   -433.49701333 </i>
    <i name="e_0_energy">   -433.56926543 </i>
   </energy>
  </scstep>
  <scstep>
   <time name="dav">  305.18  305.09</time>
   <time name="total">  313.63  313.54</time>
   <energy>
    <i name="e_fr_energy">   -433.65242129 </i>
    <i name="e_wo_entrp">   -433.49415291 </i>
    <i name="e_0_energy">   -433.57328710 </i>
   </energy>
  </scstep>
  <scstep>
   <time name="dav">  324.13  324.02</time>
   <time name="total">  332.54  332.42</time>
   <energy>
    <i name="e_fr_energy">   -433.65314490 </i>
    <i name="e_wo_entrp">   -433.50065459 </i>
    <i name="e_0_energy">   -433.57689975 </i>
   </energy>
  </scstep>
  <scstep>
   <time name="dav">  317.62  317.53</time>
   <time name="total">  326.04  325.95</time>
   <energy>
    <i name="e_fr_energy">   -433.65336674 </i>
    <i name="e_wo_entrp">   -433.50140316 </i>
    <i name="e_0_energy">   -433.57738495 </i>
   </energy>
  </scstep>
  <scstep>
   <time name="dav">  321.69  321.59</time>
   <time name="total">  330.10  329.99</time>
   <energy>
    <i name="e_fr_energy">   -433.65291894 </i>
    <i name="e_wo_entrp">   -433.50344491 </i>
    <i name="e_0_energy">   -433.57818192 </i>
   </energy>
  </scstep>
  <scstep>
   <time name="dav">  311.43  311.35</time>
   <time name="total">  319.85  319.76</time>
   <energy>
    <i name="e_fr_energy">   -433.65293139 </i>
    <i name="e_wo_entrp">   -433.50455087 </i>
    <i name="e_0_energy">   -433.57874113 </i>
   </energy>
  </scstep>
  <scstep>
   <time name="dav">  235.35  235.27</time>
   <time name="total">  243.69  243.62</time>
   <energy>
    <i name="e_fr_energy">   -433.65294335 </i>
    <i name="e_wo_entrp">   -433.50452551 </i>
    <i name="e_0_energy">   -433.57873443 </i>
   </energy>
  </scstep>
  <scstep>
   <time name="dav">  188.86  188.81</time>
   <time name="total">  189.12  189.07</time>
   <energy>
    <i name="alphaZ">   1447.03761377 </i>
    <i name="ewald"> -26378.33888771 </i>
    <i name="hartreedc"> -11609.31016872 </i>
    <i name="XCdc">   1861.84583839 </i>
    <i name="pawpsdc">  43722.96025177 </i>
    <i name="pawaedc"> -43432.48975958 </i>
    <i name="eentropy">     -0.14849993 </i>
    <i name="bandstr">  -5107.18795969 </i>
    <i name="atom">  39061.97863081 </i>
    <i name="e_fr_energy">   -433.65294088 </i>
    <i name="e_wo_entrp">   -433.50444095 </i>
    <i name="e_0_energy">   -433.57869091 </i>
   </energy>
  </scstep>
  <structure>
   <crystal>
    <varray name="basis" >
     <v>       7.72977147       0.00000000       0.00000000 </v>
     <v>       0.00000000       7.72977147       0.00000000 </v>
     <v>       0.00000000       0.00000000       9.72254935 </v>
    </varray>
    <i name="volume">    580.91616979 </i>
    <varray name="rec_basis" >
     <v>       0.12936993      -0.00000000      -0.00000000 </v>
     <v>      -0.00000000       0.12936993      -0.00000000 </v>
     <v>      -0.00000000      -0.00000000       0.10285368 </v>
    </varray>
   </crystal>
   <varray name="positions" >
    <v>       0.00000000       0.00000000       0.21577411 </v>
    <v>      -0.00000000       0.24973724       0.45776816 </v>
    <v>       0.24957150       0.24936913       0.70899070 </v>
    <v>       0.26164289       0.00000000       0.95744364 </v>
    <v>       0.00000000       0.26164289       0.04255636 </v>
    <v>      -0.00000000      -0.00000000       0.78422589 </v>
    <v>       0.24973724      -0.00000000       0.54223184 </v>
    <v>       0.24936913       0.24957150       0.29100930 </v>
    <v>       0.50000000      -0.00000000       0.20782028 </v>
    <v>       0.50000000       0.24990670       0.45841580 </v>
    <v>       0.75042850       0.24936913       0.70899070 </v>
    <v>       0.73835711      -0.00000000       0.95744364 </v>
    <v>       0.50000000       0.24911740       0.04111582 </v>
    <v>       0.50000000      -0.00000000       0.79224995 </v>
    <v>       0.75026276      -0.00000000       0.54223184 </v>
    <v>       0.75063087       0.24957150       0.29100930 </v>
    <v>      -0.00000000       0.50000000       0.20775005 </v>
    <v>      -0.00000000       0.75026276       0.45776816 </v>
    <v>       0.24957150       0.75063087       0.70899070 </v>
    <v>       0.24911740       0.50000000       0.95888418 </v>
    <v>      -0.00000000       0.73835711       0.04255636 </v>
    <v>       0.00000000       0.50000000       0.79217972 </v>
    <v>       0.24990670       0.50000000       0.54158420 </v>
    <v>       0.24936913       0.75042850       0.29100930 </v>
    <v>       0.50000000       0.50000000       0.20833079 </v>
    <v>       0.50000000       0.75009330       0.45841580 </v>
    <v>       0.75042850       0.75063087       0.70899070 </v>
    <v>       0.75088260       0.50000000       0.95888418 </v>
    <v>       0.50000000       0.75088260       0.04111582 </v>
    <v>       0.50000000       0.50000000       0.79166921 </v>
    <v>       0.75009330       0.50000000       0.54158420 </v>
    <v>       0.75063087       0.75042850       0.29100930 </v>
    <v>       0.00000000       0.25512336       0.25531457 </v>
    <v>       0.25047735       0.25047735       0.50000000 </v>
    <v>       0.25512336      -0.00000000       0.74468543 </v>
    <v>       0.50000000      -0.00000000       0.00119999 </v>
    <v>       0.50000000       0.25079685       0.25066599 </v>
    <v>       0.74952265       0.25047735       0.50000000 </v>
    <v>       0.74487664      -0.00000000       0.74468543 </v>
    <v>      -0.00000000       0.50000000      -0.00119999 </v>
    <v>       0.00000000       0.74487664       0.25531457 </v>
    <v>       0.25047735       0.74952265       0.50000000 </v>
    <v>       0.25079685       0.50000000       0.74933401 </v>
    <v>       0.50000000       0.50000000       0.00000000 </v>
    <v>       0.50000000       0.74920315       0.25066599 </v>
    <v>       0.74952265       0.74952265       0.50000000 </v>
    <v>       0.74920315       0.50000000       0.74933401 </v>
    <v>      -0.00000000      -0.00000000       0.00000000 </v>
   </varray>
  </structure>
  <varray name="forces" >
   <v>       0.00000000       0.00000000       0.34607629 </v>
   <v>      -0.00000000       0.03258461      -0.18764665 </v>
   <v>       0.00264209       0.05017926      -0.28727682 </v>
   <v>       0.02395025      -0.00000000      -0.47729710 </v>
   <v>       0.00000000       0.02395025       0.47729710 </v>
   <v>      -0.00000000      -0.00000000      -0.34607629 </v>
   <v>       0.03258461       0.00000000       0.18764665 </v>
   <v>       0.05017926       0.00264209       0.28727682 </v>
   <v>      -0.00000000      -0.00000000      -0.14245657 </v>
   <v>      -0.00000000      -0.02809892      -0.19900200 </v>
   <v>      -0.00264209       0.05017926      -0.28727682 </v>
   <v>      -0.02395025      -0.00000000      -0.47729710 </v>
   <v>       0.00000000       0.22225926       0.33585184 </v>
   <v>      -0.00000000      -0.00000000      -0.30201025 </v>
   <v>      -0.03258461       0.00000000       0.18764665 </v>
   <v>      -0.05017926       0.00264209       0.28727682 </v>
   <v>       0.00000000       0.00000000       0.30201025 </v>
   <v>      -0.00000000      -0.03258461      -0.18764665 </v>
   <v>       0.00264209      -0.05017926      -0.28727682 </v>
   <v>       0.22225926      -0.00000000      -0.33585184 </v>
   <v>       0.00000000      -0.02395025       0.47729710 </v>
   <v>       0.00000000       0.00000000       0.14245657 </v>
   <v>      -0.02809892       0.00000000       0.19900200 </v>
   <v>       0.05017926      -0.00264209       0.28727682 </v>
   <v>      -0.00000000      -0.00000000      -0.23954277 </v>
   <v>      -0.00000000       0.02809892      -0.19900200 </v>
   <v>      -0.00264209      -0.05017926      -0.28727682 </v>
   <v>      -0.22225926      -0.00000000      -0.33585184 </v>
   <v>       0.00000000      -0.22225926       0.33585184 </v>
   <v>       0.00000000       0.00000000       0.23954277 </v>
   <v>       0.02809892       0.00000000       0.19900200 </v>
   <v>      -0.05017926      -0.00264209       0.28727682 </v>
   <v>       0.00000000       0.68529056       0.92462373 </v>
   <v>       0.18080016       0.18080016       0.00000000 </v>
   <v>       0.68529056      -0.00000000      -0.92462373 </v>
   <v>       0.00000000       0.00000000       0.78286963 </v>
   <v>      -0.00000000      -0.02057117      -0.11831094 </v>
   <v>      -0.18080016       0.18080016       0.00000000 </v>
   <v>      -0.68529056      -0.00000000      -0.92462373 </v>
   <v>      -0.00000000      -0.00000000      -0.78286963 </v>
   <v>       0.00000000      -0.68529056       0.92462373 </v>
   <v>       0.18080016      -0.18080016       0.00000000 </v>
   <v>      -0.02057117       0.00000000       0.11831094 </v>
   <v>       0.00000000      -0.00000000       0.00000000 </v>
   <v>      -0.00000000       0.02057117      -0.11831094 </v>
   <v>      -0.18080016      -0.18080016       0.00000000 </v>
   <v>       0.02057117       0.00000000       0.11831094 </v>
   <v>       0.00000000      -0.00000000       0.00000000 </v>
  </varray>
  <varray name="stress" >
   <v>     -15.77590359      -0.00000000      -0.00000000 </v>
   <v>      -0.00000000     -15.77590359      -0.00000000 </v>
   <v>      -0.00000000      -0.00000000     -29.01248410 </v>
  </varray>
  <energy>
   <i name="e_fr_energy">   -433.65294088 </i>
   <i name="e_wo_entrp">   -433.57869091 </i>
   <i name="e_0_energy">     -0.14849993 </i>
  </energy>
  <time name="totalsc"> 6290.84 6289.19</time>
 </calculation>
 <calculation>
  <scstep>
   <time name="dav">  259.62  259.52</time>
   <time name="total">  267.96  267.89</time>
   <energy>
    <i name="alphaZ">   1449.43737821 </i>
    <i name="ewald"> -26392.84501487 </i>
    <i name="hartreedc"> -11615.72245797 </i>
    <i name="XCdc">   1862.84280365 </i>
    <i name="pawpsdc">  43723.31085582 </i>
    <i name="pawaedc"> -43432.77206767 </i>
    <i name="eentropy">     -0.14920701 </i>
    <i name="bandstr">  -5089.74186389 </i>
    <i name="atom">  39061.97863081 </i>
    <i name="e_fr_energy">   -433.66094292 </i>
    <i name="e_wo_entrp">   -433.51173591 </i>
    <i name="e_0_energy">   -433.58633941 </i>
   </energy>
  </scstep>
  <scstep>
   <time name="dav">  263.22  263.18</time>
   <time name="total">  271.55  271.51</time>
   <energy>
    <i name="e_fr_energy">   -433.65627523 </i>
    <i name="e_wo_entrp">   -433.50912639 </i>
    <i name="e_0_energy">   -433.58270081 </i>
   </energy>
  </scstep>
  <scstep>
   <time name="dav">  305.42  305.33</time>
   <time name="total">  313.75  313.65</time>
   <energy>
    <i name="e_fr_energy">   -433.65820030 </i>
    <i name="e_wo_entrp">   -433.49903028 </i>
    <i name="e_0_energy">   -433.57861529 </i>
   </energy>
  </scstep>
  <scstep>
   <time name="dav">  294.39  294.33</time>
   <time name="total">  302.78  302.72</time>
   <energy>
    <i name="e_fr_energy">   -433.65475663 </i>
    <i name="e_wo_entrp">   -433.50645682 </i>
    <i name="e_0_energy">   -433.58060673 </i>
   </energy>
  </scstep>
  <scstep>
   <time name="dav">  324.52  324.51</time>
   <time name="total">  332.85  332.84</time>
   <energy>
    <i name="e_fr_energy">   -433.65470108 </i>
    <i name="e_wo_entrp">   -433.50548563 </i>
    <i name="e_0_energy">   -433.58009336 </i>
   </energy>
  </scstep>
  <scstep>
   <time name="dav">  307.32  307.24</time>
   <time name="total">  315.66  315.58</time>
   <energy>
    <i name="e_fr_energy">   -433.65474415 </i>
    <i name="e_wo_entrp">   -433.50533584 </i>
    <i name="e_0_energy">   -433.58003999 </i>
   </energy>
  </scstep>
  <scstep>
   <time name="dav">  330.13  330.04</time>
   <time name="total">  338.56  338.47</time>
   <energy>
    <i name="e_fr_energy">   -433.65481393 </i>
    <i name="e_wo_entrp">   -433.50541137 </i>
    <i name="e_0_energy">   -433.58011265 </i>
   </energy>
  </scstep>
  <scstep>
   <time name="dav">  215.49  215.46</time>
   <time name="total">  223.80  223.77</time>
   <energy>
    <i name="e_fr_energy">   -433.65483205 </i>
    <i name="e_wo_entrp">   -433.50543687 </i>
    <i name="e_0_energy">   -433.58013446 </i>
   </energy>
  </scstep>
  <scstep>
   <time name="dav">  175.98  175.94</time>
   <time name="total">  176.24  176.20</time>
   <energy>
    <i name="alphaZ">   1449.43737821 </i>
    <i name="ewald"> -26392.84501487 </i>
    <i name="hartreedc"> -11603.27752768 </i>
    <i name="XCdc">   1862.12475889 </i>
    <i name="pawpsdc">  43804.15166932 </i>
    <i name="pawaedc"> -43513.34548277 </i>
    <i name="eentropy">     -0.14941032 </i>
    <i name="bandstr">  -5101.72983736 </i>
    <i name="atom">  39061.97863081 </i>
    <i name="e_fr_energy">   -433.65483577 </i>
    <i name="e_wo_entrp">   -433.50542544 </i>
    <i name="e_0_energy">   -433.58013060 </i>
   </energy>
  </scstep>
  <structure>
   <crystal>
    <varray name="basis" >
     <v>       7.72553777       0.00000000       0.00000000 </v>
     <v>       0.00000000       7.72553777       0.00000000 </v>
     <v>       0.00000000       0.00000000       9.71709364 </v>
    </varray>
    <i name="volume">    579.95437455 </i>
    <varray name="rec_basis" >
     <v>       0.12944083      -0.00000000      -0.00000000 </v>
     <v>      -0.00000000       0.12944083      -0.00000000 </v>
     <v>      -0.00000000      -0.00000000       0.10291143 </v>
    </varray>
   </crystal>
   <varray name="positions" >
    <v>       0.00000000       0.00000000       0.21558717 </v>
    <v>      -0.00000000       0.24974365       0.45777624 </v>
    <v>       0.24958195       0.24938452       0.70896900 </v>
    <v>       0.26135879       0.00000000       0.95745963 </v>
    <v>       0.00000000       0.26135879       0.04254037 </v>
    <v>      -0.00000000      -0.00000000       0.78441283 </v>
    <v>       0.24974365      -0.00000000       0.54222376 </v>
    <v>       0.24938452       0.24958195       0.29103100 </v>
    <v>       0.50000000      -0.00000000       0.20782709 </v>
    <v>       0.50000000       0.24990898       0.45840810 </v>
    <v>       0.75041805       0.24938452       0.70896900 </v>
    <v>       0.73864121      -0.00000000       0.95745963 </v>
    <v>       0.50000000       0.24913894       0.04113492 </v>
    <v>       0.50000000      -0.00000000       0.79224143 </v>
    <v>       0.75025635      -0.00000000       0.54222376 </v>
    <v>       0.75061548       0.24958195       0.29103100 </v>
    <v>      -0.00000000       0.50000000       0.20775857 </v>
    <v>      -0.00000000       0.75025635       0.45777624 </v>
    <v>       0.24958195       0.75061548       0.70896900 </v>
    <v>       0.24913894       0.50000000       0.95886508 </v>
    <v>      -0.00000000       0.73864121       0.04254037 </v>
    <v>       0.00000000       0.50000000       0.79217291 </v>
    <v>       0.24990898       0.50000000       0.54159190 </v>
    <v>       0.24938452       0.75041805       0.29103100 </v>
    <v>       0.50000000       0.50000000       0.20832517 </v>
    <v>       0.50000000       0.75009102       0.45840810 </v>
    <v>       0.75041805       0.75061548       0.70896900 </v>
    <v>       0.75086106       0.50000000       0.95886508 </v>
    <v>       0.50000000       0.75086106       0.04113492 </v>
    <v>       0.50000000       0.50000000       0.79167483 </v>
    <v>       0.75009102       0.50000000       0.54159190 </v>
    <v>       0.75061548       0.75041805       0.29103100 </v>
    <v>       0.00000000       0.25499835       0.25518511 </v>
    <v>       0.25046570       0.25046570       0.50000000 </v>
    <v>       0.25499835      -0.00000000       0.74481489 </v>
    <v>       0.50000000      -0.00000000       0.00117076 </v>
    <v>       0.50000000       0.25077741       0.25064977 </v>
    <v>       0.74953430       0.25046570       0.50000000 </v>
    <v>       0.74500165      -0.00000000       0.74481489 </v>
    <v>      -0.00000000       0.50000000      -0.00117076 </v>
    <v>       0.00000000       0.74500165       0.25518511 </v>
    <v>       0.25046570       0.74953430       0.50000000 </v>
    <v>       0.25077741       0.50000000       0.74935023 </v>
[...]
       <r>     9.5773    17.9013   262.3600 </r>
       <r>     9.8214    16.1841   266.3101 </r>
       <r>    10.0655    13.4501   269.5929 </r>
       <r>    10.3095    11.5891   272.4215 </r>
       <r>    10.5536     5.9881   273.8830 </r>
       <r>    10.7977     1.5462   274.2604 </r>
       <r>    11.0418     1.2564   274.5670 </r>
       <r>    11.2858     3.5047   275.4224 </r>
       <r>    11.5299     5.6372   276.7983 </r>
       <r>    11.7740     5.4853   278.1371 </r>
       <r>    12.0181     2.3290   278.7056 </r>
       <r>    12.2621     1.7637   279.1360 </r>
       <r>    12.5062     1.6053   279.5279 </r>
       <r>    12.7503     1.2233   279.8264 </r>
       <r>    12.9943     0.4772   279.9429 </r>
       <r>    13.2384     0.1998   279.9917 </r>
       <r>    13.4825     0.0323   279.9995 </r>
       <r>    13.7266     0.0019   280.0000 </r>
       <r>    13.9706     0.0000   280.0000 </r>
       <r>    14.2147     0.0000   280.0000 </r>
       <r>    14.4588     0.0000   280.0000 </r>
       <r>    14.7029     0.0000   280.0000 </r>
       <r>    14.9469     0.0000   280.0000 </r>
       <r>    15.1910     0.0000   280.0000 </r>
       <r>    15.4351     0.0000   280.0000 </r>
       <r>    15.6791     0.0000   280.0000 </r>
       <r>    15.9232     0.0000   280.0000 </r>
       <r>    16.1673     0.0000   280.0000 </r>
       <r>    16.4114     0.0000   280.0000 </r>
       <r>    16.6554     0.0000   280.0000 </r>
      </set>
      <set comment="spin 2">
       <r>   -56.5665     0.0000     0.0000 </r>
       <r>   -56.3224     0.0000     0.0000 </r>
       <r>   -56.0783     0.0000     0.0000 </r>
       <r>   -55.8342     0.0000     0.0000 </r>
       <r>   -55.5902     0.0000     0.0000 </r>
       <r>   -55.3461     0.0000     0.0000 </r>
       <r>   -55.1020     0.0000     0.0000 </r>
       <r>   -54.8580     0.0000     0.0000 </r>
       <r>   -54.6139     0.0000     0.0000 </r>
       <r>   -54.3698     0.0000     0.0000 </r>
       <r>   -54.1257     0.0000     0.0000 </r>
       <r>   -53.8817     0.0000     0.0000 </r>
       <r>   -53.6376     0.0208     0.0051 </r>
       <r>   -53.3935     2.5043     0.6163 </r>
       <r>   -53.1494    26.6190     7.1133 </r>
       <r>   -52.9054    29.0805    14.2110 </r>
       <r>   -52.6613     3.2042    14.9931 </r>
       <r>   -52.4172     0.0283    15.0000 </r>
       <r>   -52.1731     0.0000    15.0000 </r>
       <r>   -51.9291     0.0000    15.0000 </r>
       <r>   -51.6850     0.0000    15.0000 </r>
       <r>   -51.4409     0.0000    15.0000 </r>
       <r>   -51.1969     0.0000    15.0000 </r>
       <r>   -50.9528     0.0000    15.0000 </r>
       <r>   -50.7087     0.0000    15.0000 </r>
       <r>   -50.4646     0.0000    15.0000 </r>
       <r>   -50.2206     0.0000    15.0000 </r>
       <r>   -49.9765     0.0000    15.0000 </r>
       <r>   -49.7324     0.0000    15.0000 </r>
       <r>   -49.4883     0.0000    15.0000 </r>
       <r>   -49.2443     0.0000    15.0000 </r>
       <r>   -49.0002     0.0000    15.0000 </r>
       <r>   -48.7561     0.0000    15.0000 </r>
       <r>   -48.5121     0.0000    15.0000 </r>
       <r>   -48.2680     0.0000    15.0000 </r>
       <r>   -48.0239     0.0000    15.0000 </r>
       <r>   -47.7798     0.0000    15.0000 </r>
       <r>   -47.5358     0.0000    15.0000 </r>
       <r>   -47.2917     0.0000    15.0000 </r>
       <r>   -47.0476     0.0000    15.0000 </r>
       <r>   -46.8035     0.0000    15.0000 </r>
       <r>   -46.5595     0.0000    15.0000 </r>
       <r>   -46.3154     0.0000    15.0000 </r>
       <r>   -46.0713     0.0000    15.0000 </r>
       <r>   -45.8272     0.0000    15.0000 </r>
       <r>   -45.5832     0.0000    15.0000 </r>
       <r>   -45.3391     0.0000    15.0000 </r>
       <r>   -45.0950     0.0000    15.0000 </r>
       <r>   -44.8510     0.0000    15.0000 </r>
       <r>   -44.6069     0.0000    15.0000 </r>
       <r>   -44.3628     0.0000    15.0000 </r>
       <r>   -44.1187     0.0000    15.0000 </r>
       <r>   -43.8747     0.0000    15.0000 </r>
       <r>   -43.6306     0.0000    15.0000 </r>
       <r>   -43.3865     0.0000    15.0000 </r>
       <r>   -43.1424     0.0000    15.0000 </r>
       <r>   -42.8984     0.0000    15.0000 </r>
       <r>   -42.6543     0.0000    15.0000 </r>
       <r>   -42.4102     0.0000    15.0000 </r>
       <r>   -42.1662     0.0000    15.0000 </r>
       <r>   -41.9221     0.0000    15.0000 </r>
       <r>   -41.6780     0.0000    15.0000 </r>
       <r>   -41.4339     0.0000    15.0000 </r>
       <r>   -41.1899     0.0000    15.0000 </r>
       <r>   -40.9458     0.0000    15.0000 </r>
       <r>   -40.7017     0.0000    15.0000 </r>
       <r>   -40.4576     0.0000    15.0000 </r>
       <r>   -40.2136     0.0000    15.0000 </r>
       <r>   -39.9695     0.0000    15.0000 </r>
       <r>   -39.7254     0.0000    15.0000 </r>
       <r>   -39.4814     0.0000    15.0000 </r>
       <r>   -39.2373     0.0000    15.0000 </r>
       <r>   -38.9932     0.0000    15.0000 </r>
       <r>   -38.7491     0.0000    15.0000 </r>
       <r>   -38.5051     0.0067    15.0016 </r>
       <r>   -38.2610     0.4524    15.1120 </r>
       <r>   -38.0169     2.3885    15.6950 </r>
       <r>   -37.7728     1.1976    15.9873 </r>
       <r>   -37.5288     0.0518    16.0000 </r>
       <r>   -37.2847     0.0002    16.0000 </r>
       <r>   -37.0406     0.0000    16.0000 </r>
       <r>   -36.7965     0.0000    16.0000 </r>
       <r>   -36.5525     0.0000    16.0000 </r>
       <r>   -36.3084     0.0000    16.0000 </r>
       <r>   -36.0643     0.0000    16.0000 </r>
       <r>   -35.8203     0.0000    16.0000 </r>
       <r>   -35.5762     0.0000    16.0000 </r>
       <r>   -35.3321     0.0000    16.0000 </r>
       <r>   -35.0880     0.0000    16.0000 </r>
       <r>   -34.8440     0.0000    16.0000 </r>
       <r>   -34.5999     0.0000    16.0000 </r>
       <r>   -34.3558     0.0000    16.0000 </r>
       <r>   -34.1117     0.0000    16.0000 </r>
       <r>   -33.8677     0.0000    16.0000 </r>
       <r>   -33.6236     0.0000    16.0000 </r>
       <r>   -33.3795     0.0000    16.0000 </r>
       <r>   -33.1355     0.0000    16.0000 </r>
       <r>   -32.8914     0.0000    16.0000 </r>
       <r>   -32.6473     0.0000    16.0000 </r>
       <r>   -32.4032     0.0000    16.0000 </r>
       <r>   -32.1592     0.0000    16.0000 </r>
       <r>   -31.9151     0.0000    16.0000 </r>
       <r>   -31.6710     0.0000    16.0000 </r>
       <r>   -31.4269     0.0000    16.0000 </r>
       <r>   -31.1829     0.0000    16.0000 </r>
       <r>   -30.9388     0.0000    16.0000 </r>
       <r>   -30.6947     0.0000    16.0000 </r>
       <r>   -30.4507     0.0000    16.0000 </r>
       <r>   -30.2066     0.0003    16.0001 </r>
       <r>   -29.9625     0.1646    16.0402 </r>
       <r>   -29.7184     7.8626    17.9593 </r>
       <r>   -29.4744    53.3204    30.9734 </r>
       <r>   -29.2303    90.5002    53.0620 </r>
       <r>   -28.9862    31.2201    60.6820 </r>
       <r>   -28.7421     1.2984    60.9989 </r>
       <r>   -28.4981     0.0044    61.0000 </r>
       <r>   -28.2540     0.0000    61.0000 </r>
       <r>   -28.0099     0.0000    61.0000 </r>
       <r>   -27.7658     0.0000    61.0000 </r>
       <r>   -27.5218     0.0000    61.0000 </r>
       <r>   -27.2777     0.0000    61.0000 </r>
       <r>   -27.0336     0.0000    61.0000 </r>
       <r>   -26.7896     0.0000    61.0000 </r>
       <r>   -26.5455     0.0000    61.0000 </r>
       <r>   -26.3014     0.0000    61.0000 </r>
       <r>   -26.0573     0.0000    61.0000 </r>
       <r>   -25.8133     0.0000    61.0000 </r>
       <r>   -25.5692     0.0000    61.0000 </r>
       <r>   -25.3251     0.0000    61.0000 </r>
       <r>   -25.0810     0.0000    61.0000 </r>
       <r>   -24.8370     0.0000    61.0000 </r>
       <r>   -24.5929     0.0000    61.0000 </r>
       <r>   -24.3488     0.0000    61.0000 </r>
       <r>   -24.1048     0.0000    61.0000 </r>
       <r>   -23.8607     0.0000    61.0000 </r>
       <r>   -23.6166     0.0000    61.0000 </r>
       <r>   -23.3725     0.0000    61.0000 </r>
       <r>   -23.1285     0.0000    61.0000 </r>
       <r>   -22.8844     0.0000    61.0000 </r>
       <r>   -22.6403     0.0000    61.0000 </r>
       <r>   -22.3962     0.0000    61.0000 </r>
       <r>   -22.1522     0.0000    61.0000 </r>
       <r>   -21.9081     0.0000    61.0000 </r>
       <r>   -21.6640     0.0000    61.0000 </r>
       <r>   -21.4199     0.0000    61.0000 </r>
       <r>   -21.1759     0.0000    61.0000 </r>
       <r>   -20.9318     0.0000    61.0000 </r>
       <r>   -20.6877     0.0000    61.0000 </r>
       <r>   -20.4437     0.0000    61.0000 </r>
       <r>   -20.1996     0.0000    61.0000 </r>
       <r>   -19.9555     0.0000    61.0000 </r>
       <r>   -19.7114     0.0000    61.0000 </r>
       <r>   -19.4674     0.0000    61.0000 </r>
       <r>   -19.2233     0.0000    61.0000 </r>
       <r>   -18.9792     0.0000    61.0000 </r>
       <r>   -18.7351     0.0000    61.0000 </r>
       <r>   -18.4911     0.0000    61.0000 </r>
       <r>   -18.2470     0.0000    61.0000 </r>
       <r>   -18.0029     0.0000    61.0000 </r>
       <r>   -17.7589     0.0000    61.0000 </r>
       <r>   -17.5148     0.0000    61.0000 </r>
       <r>   -17.2707     0.0000    61.0000 </r>
       <r>   -17.0266     0.0000    61.0000 </r>
       <r>   -16.7826     0.0004    61.0001 </r>
       <r>   -16.5385     0.1145    61.0281 </r>
       <r>   -16.2944     2.5929    61.6609 </r>
       <r>   -16.0503     6.9044    63.3461 </r>
       <r>   -15.8063     2.5647    63.9721 </r>
       <r>   -15.5622     0.1140    63.9999 </r>
       <r>   -15.3181     0.0004    64.0000 </r>
       <r>   -15.0741     0.0000    64.0000 </r>
       <r>   -14.8300     0.0000    64.0000 </r>
       <r>   -14.5859     0.0038    64.0009 </r>
       <r>   -14.3418     0.2064    64.0513 </r>
       <r>   -14.0978     1.9503    64.5273 </r>
       <r>   -13.8537     6.8473    66.1985 </r>
       <r>   -13.6096    12.2174    69.1805 </r>
       <r>   -13.3655    13.7971    72.5480 </r>
       <r>   -13.1215    21.6381    77.8292 </r>
       <r>   -12.8774    34.7113    86.3013 </r>
       <r>   -12.6333    23.5347    92.0455 </r>
       <r>   -12.3892     3.8293    92.9802 </r>
       <r>   -12.1452     0.0812    93.0000 </r>
       <r>   -11.9011     0.0002    93.0000 </r>
       <r>   -11.6570     0.0000    93.0000 </r>
       <r>   -11.4130     0.0000    93.0000 </r>
       <r>   -11.1689     0.0227    93.0056 </r>
       <r>   -10.9248     0.9137    93.2286 </r>
       <r>   -10.6807     4.1727    94.2470 </r>
       <r>   -10.4367     3.4203    95.0818 </r>
       <r>   -10.1926     2.7355    95.7495 </r>
       <r>    -9.9485     0.9929    95.9918 </r>
       <r>    -9.7044     0.0335    96.0000 </r>
       <r>    -9.4604     0.0001    96.0000 </r>
       <r>    -9.2163     0.0000    96.0000 </r>
       <r>    -8.9722     0.0000    96.0000 </r>
       <r>    -8.7282     0.0000    96.0000 </r>
       <r>    -8.4841     0.0000    96.0000 </r>
       <r>    -8.2400     0.0000    96.0000 </r>
       <r>    -7.9959     0.0000    96.0000 </r>
       <r>    -7.7519     0.0000    96.0000 </r>
       <r>    -7.5078     0.0000    96.0000 </r>
       <r>    -7.2637     0.0000    96.0000 </r>
       <r>    -7.0196     0.0000    96.0000 </r>
       <r>    -6.7756     0.0000    96.0000 </r>
       <r>    -6.5315     0.0000    96.0000 </r>
       <r>    -6.2874     0.0000    96.0000 </r>
       <r>    -6.0434     0.0000    96.0000 </r>
       <r>    -5.7993     0.0000    96.0000 </r>
       <r>    -5.5552     0.0000    96.0000 </r>
       <r>    -5.3111     0.0000    96.0000 </r>
       <r>    -5.0671     0.0000    96.0000 </r>
       <r>    -4.8230     0.0000    96.0000 </r>
       <r>    -4.5789     0.0000    96.0000 </r>
       <r>    -4.3348     0.0000    96.0000 </r>
       <r>    -4.0908     0.0000    96.0000 </r>
       <r>    -3.8467     0.0000    96.0000 </r>
       <r>    -3.6026     0.0000    96.0000 </r>
       <r>    -3.3585     0.0000    96.0000 </r>
       <r>    -3.1145     0.0000    96.0000 </r>
       <r>    -2.8704     0.0000    96.0000 </r>
       <r>    -2.6263     0.0000    96.0000 </r>
       <r>    -2.3823     0.0000    96.0000 </r>
       <r>    -2.1382     0.0000    96.0000 </r>
       <r>    -1.8941     0.0013    96.0003 </r>
       <r>    -1.6500     0.2369    96.0581 </r>
       <r>    -1.4060     4.8871    97.2510 </r>
       <r>    -1.1619    17.5526   101.5351 </r>
       <r>    -0.9178    20.5175   106.5428 </r>
       <r>    -0.6737    20.5581   111.5605 </r>
       <r>    -0.4297    25.6789   117.8280 </r>
       <r>    -0.1856    28.5355   124.7928 </r>
       <r>     0.0585    23.8188   130.6063 </r>
       <r>     0.3025    18.9411   135.2293 </r>
       <r>     0.5466    17.7072   139.5512 </r>
       <r>     0.7907    18.2541   144.0065 </r>
       <r>     1.0348    20.7041   149.0598 </r>
       <r>     1.2788    21.7275   154.3629 </r>
       <r>     1.5229    19.5678   159.1389 </r>
       <r>     1.7670    17.9692   163.5247 </r>
       <r>     2.0111    19.0771   168.1809 </r>
       <r>     2.2551    22.1086   173.5770 </r>
       <r>     2.4992    25.3319   179.7598 </r>
       <r>     2.7433    23.9632   185.6086 </r>
       <r>     2.9874    18.0923   190.0244 </r>
       <r>     3.2314     7.3290   191.8132 </r>
       <r>     3.4755     0.7546   191.9974 </r>
       <r>     3.7196     0.0106   192.0000 </r>
       <r>     3.9636     0.0000   192.0000 </r>
       <r>     4.2077     0.0000   192.0000 </r>
       <r>     4.4518     0.0000   192.0000 </r>
       <r>     4.6959     0.0000   192.0000 </r>
       <r>     4.9399     0.0001   192.0000 </r>
       <r>     5.1840     0.0122   192.0030 </r>
       <r>     5.4281     0.2286   192.0588 </r>
       <r>     5.6722     1.0619   192.3180 </r>
       <r>     5.9162     3.4603   193.1625 </r>
       <r>     6.1603    13.5894   196.4793 </r>
       <r>     6.4044    30.3892   203.8965 </r>
       <r>     6.6484    39.4983   213.5370 </r>
       <r>     6.8925    42.0303   223.7955 </r>
       <r>     7.1366    26.4418   230.2492 </r>
       <r>     7.3807    17.2629   234.4626 </r>
       <r>     7.6247    18.3852   238.9499 </r>
       <r>     7.8688    14.1570   242.4053 </r>
       <r>     8.1129     7.6067   244.2619 </r>
       <r>     8.3570     7.4544   246.0813 </r>
       <r>     8.6010    11.0235   248.7718 </r>
       <r>     8.8451    11.5570   251.5925 </r>
       <r>     9.0892    11.5623   254.4146 </r>
       <r>     9.3332    14.1603   257.8707 </r>
       <r>     9.5773    17.8603   262.2300 </r>
       <r>     9.8214    16.3266   266.2148 </r>
       <r>    10.0655    13.4581   269.4996 </r>
       <r>    10.3095    11.7456   272.3664 </r>
       <r>    10.5536     6.1340   273.8635 </r>
       <r>    10.7977     1.5699   274.2467 </r>
       <r>    11.0418     0.8564   274.4557 </r>
       <r>    11.2858     1.3172   274.7772 </r>
       <r>    11.5299     3.7548   275.6936 </r>
       <r>    11.7740     6.5952   277.3033 </r>
       <r>    12.0181     5.1318   278.5559 </r>
       <r>    12.2621     2.2156   279.0966 </r>
       <r>    12.5062     1.6432   279.4977 </r>
       <r>    12.7503     1.2864   279.8117 </r>
       <r>    12.9943     0.5114   279.9365 </r>
       <r>    13.2384     0.2184   279.9898 </r>
       <r>    13.4825     0.0389   279.9993 </r>
       <r>    13.7266     0.0027   280.0000 </r>
       <r>    13.9706     0.0000   280.0000 </r>
       <r>    14.2147     0.0000   280.0000 </r>
       <r>    14.4588     0.0000   280.0000 </r>
       <r>    14.7029     0.0000   280.0000 </r>
       <r>    14.9469     0.0000   280.0000 </r>
       <r>    15.1910     0.0000   280.0000 </r>
       <r>    15.4351     0.0000   280.0000 </r>
       <r>    15.6791     0.0000   280.0000 </r>
       <r>    15.9232     0.0000   280.0000 </r>
       <r>    16.1673     0.0000   280.0000 </r>
       <r>    16.4114     0.0000   280.0000 </r>
       <r>    16.6554     0.0000   280.0000 </r>
      </set>
     </set>
    </array>
   </total>
  </dos>
 </calculation>
 <structure name="finalpos" >
  <crystal>
   <varray name="basis" >
    <v>       7.70922300       0.00000000       0.00000000 </v>
    <v>       0.00000000       7.70922300       0.00000000 </v>
    <v>       0.00000000       0.00000000       9.70519821 </v>
   </varray>
   <i name="volume">    576.80049773 </i>
   <varray name="rec_basis" >
    <v>       0.12971476      -0.00000000      -0.00000000 </v>
    <v>      -0.00000000       0.12971476      -0.00000000 </v>
    <v>      -0.00000000      -0.00000000       0.10303757 </v>
   </varray>
  </crystal>
  <varray name="positions" >
   <v>      -0.00000000       0.00000000       0.21854504 </v>
   <v>      -0.00000000       0.25236652       0.46155002 </v>
   <v>       0.25123264       0.25155244       0.70514339 </v>
   <v>       0.26492231       0.00000000       0.94985680 </v>
   <v>       0.00000000       0.26492231       0.05014320 </v>
   <v>      -0.00000000       0.00000000       0.78145496 </v>
   <v>       0.25236652       0.00000000       0.53844998 </v>
   <v>       0.25155244       0.25123264       0.29485661 </v>
   <v>       0.50000000       0.00000000       0.20643088 </v>
   <v>       0.50000000       0.25121891       0.45883463 </v>
   <v>       0.74876736       0.25155244       0.70514339 </v>
   <v>       0.73507769       0.00000000       0.94985680 </v>
   <v>       0.50000000       0.25127187       0.04512121 </v>
   <v>       0.50000000       0.00000000       0.78045018 </v>
   <v>       0.74763348       0.00000000       0.53844998 </v>
   <v>       0.74844756       0.25123264       0.29485661 </v>
   <v>      -0.00000000       0.50000000       0.21954982 </v>
   <v>      -0.00000000       0.74763348       0.46155002 </v>
   <v>       0.25123264       0.74844756       0.70514339 </v>
   <v>       0.25127187       0.50000000       0.95487879 </v>
   <v>      -0.00000000       0.73507769       0.05014320 </v>
   <v>      -0.00000000       0.50000000       0.79356912 </v>
   <v>       0.25121891       0.50000000       0.54116537 </v>
   <v>       0.25155244       0.74876736       0.29485661 </v>
   <v>       0.50000000       0.50000000       0.20780934 </v>
   <v>       0.50000000       0.74878109       0.45883463 </v>
   <v>       0.74876736       0.74844756       0.70514339 </v>
   <v>       0.74872813       0.50000000       0.95487879 </v>
   <v>       0.50000000       0.74872813       0.04512121 </v>
   <v>       0.50000000       0.50000000       0.79219066 </v>
   <v>       0.74878109       0.50000000       0.54116537 </v>
   <v>       0.74844756       0.74876736       0.29485661 </v>
   <v>      -0.00000000       0.26039761       0.26476961 </v>
   <v>       0.25384543       0.25384543       0.50000000 </v>
   <v>       0.26039761       0.00000000       0.73523039 </v>
   <v>       0.50000000       0.00000000       0.00656306 </v>
   <v>       0.50000000       0.25287571       0.25080240 </v>
   <v>       0.74615457       0.25384543       0.50000000 </v>
   <v>       0.73960239       0.00000000       0.73523039 </v>
   <v>      -0.00000000       0.50000000      -0.00656306 </v>
   <v>      -0.00000000       0.73960239       0.26476961 </v>
   <v>       0.25384543       0.74615457       0.50000000 </v>
   <v>       0.25287571       0.50000000       0.74919760 </v>
   <v>       0.50000000       0.50000000       0.00000000 </v>
   <v>       0.50000000       0.74712429       0.25080240 </v>
   <v>       0.74615457       0.74615457       0.50000000 </v>
   <v>       0.74712429       0.50000000       0.74919760 </v>
   <v>      -0.00000000       0.00000000       0.00000000 </v>
  </varray>
 </structure>
</modeling>
