   44   44    1    1
  0.1447923E+02  0.5025887E-09  0.5274995E-09  0.2403053E-08  0.5000000E-15
  1.000000000000000E-004
  CAR 
 unknown system                          
  388  128  240
 
  0.3742002E-15  0.3742002E-15  0.3742002E-15  0.1481481E-02
   1      -27.727965
   2      -27.727946
   3      -27.682641
   4      -27.682637
   5      -27.623317
   6      -27.623315
   7      -27.589392
   8      -27.589387
   9      -18.325185
  10      -18.325156
  11      -18.320620
  12      -18.320608
  13      -18.297457
  14      -18.297425
  15      -18.256931
  16      -18.256871
  17      -18.169278
  18      -18.169242
  19      -18.159348
  20      -18.159258
  21      -18.156484
  22      -18.156477
  23      -18.155723
  24      -18.155716
  25      -18.085760
  26      -18.085734
  27      -18.072788
  28      -18.072772
  29      -18.028979
  30      -18.028960
  31      -18.013725
  32      -18.013715
  33      -18.005318
  34      -18.005295
  35      -17.983560
  36      -17.983541
  37      -17.981575
  38      -17.981558
  39      -17.963493
  40      -17.963470
  41      -17.956176
  42      -17.956126
  43      -17.924855
  44      -17.924848
  45      -17.922270
  46      -17.922255
  47      -17.900410
  48      -17.900329
  49      -13.909680
  50      -13.867815
  51      -13.732346
  52      -13.606593
  53      -13.576514
  54      -13.490799
  55      -12.576528
  56      -12.575412
  57      -12.331893
  58      -12.331454
  59      -12.245593
  60      -12.240740
  61      -12.223280
  62      -12.218252
  63      -12.040470
  64      -12.031249
  65      -11.988164
  66      -11.979327
  67      -11.894491
  68      -11.871289
  69      -11.771038
  70      -11.748715
  71      -11.449138
  72      -11.449024
  73      -10.254192
  74      -10.254042
  75      -10.252898
  76      -10.250629
  77      -10.130311
  78      -10.126310
  79       -9.812238
  80       -9.812218
  81       -9.758993
  82       -9.758877
  83       -9.748267
  84       -9.741891
  85       -9.724659
  86       -9.724621
  87       -9.667164
  88       -9.667028
  89       -9.631104
  90       -9.627483
  91       -9.468962
  92       -9.468436
  93       -9.458638
  94       -9.458625
  95       -9.103323
  96       -9.097921
  97       -5.073448
  98       -5.052831
  99       -4.832648
 100       -4.814052
 101       -4.806877
 102       -4.806305
 103       -4.370610
 104       -4.366216
 105       -2.232113
 106       -2.223571
 107       -1.557155
 108       -1.552773
 109       -1.077866
 110       -1.077083
 111       -1.001577
 112       -1.001440
 113       -0.986504
 114       -0.979474
 115       -0.666590
 116       -0.645603
 117       -0.598712
 118       -0.590123
 119       -0.289643
 120       -0.287342
 121        0.412619
 122        0.413887
 123        0.623424
 124        0.635255
 125        0.759390
 126        0.792323
 127        0.846603
 128        0.862397
 129        0.886095
 130        0.888556
 131        0.908759
 132        1.027886
 133        1.028415
 134        1.178819
 135        1.179872
 136        1.182337
 137        1.191852
 138        1.192051
 139        1.201364
 140        1.224115
 141        1.330799
 142        1.631765
 143        1.642768
 144        1.683253
 145        1.951027
 146        2.064556
 147        2.355027
 148        2.362126
 149        2.362582
 150        2.370861
 151        2.438411
 152        2.442760
 153        2.454023
 154        2.462694
 155        2.466408
 156        2.480861
 157        2.547334
 158        2.589866
 159        2.602882
 160        2.607528
 161        2.612673
 162        2.643327
 163        2.643675
 164        2.675751
 165        2.785363
 166        2.787650
 167        2.857465
 168        2.860578
 169        2.868121
 170        3.011817
 171        3.014868
 172        3.059933
 173        3.097443
 174        3.103593
 175        3.132662
 176        3.435697
 177        3.480703
 178        3.480806
 179        3.714401
 180        3.787220
 181        3.787946
 182        3.828043
 183        4.135119
 184        4.135215
 185        4.416158
 186        4.417913
 187        4.552165
 188        4.563301
 189        4.880913
 190        4.881496
 191        4.895401
 192        4.896447
 193        5.029031
 194        5.029509
 195        7.335981
 196        7.343382
 197        7.780833
 198        7.814136
 199        7.930819
 200        8.136425
 201        8.522990
 202        8.523552
 203        8.679185
 204        8.701708
 205        8.724773
 206        8.778128
 207        9.003327
 208        9.057378
 209        9.057412
 210        9.223796
 211        9.261577
 212        9.285786
 213        9.322943
 214        9.457780
 215        9.471171
 216       10.001038
 217       10.004067
 218       10.062021
 219       10.305779
 220       10.307218
 221       10.381956
 222       10.382318
 223       10.397632
 224       10.658447
 225       10.964377
 226       11.122630
 227       11.128419
 228       11.157812
 229       11.182823
 230       11.227336
 231       11.448493
 232       11.640616
 233       11.651423
 234       12.017841
 235       12.065535
 236       12.168281
 237       12.349849
 238       12.374445
 239       12.512693
 240       12.574827
 
  0.6666667E-01  0.3742002E-15  0.3742002E-15  0.2962963E-02
   1      -27.726725
   2      -27.726724
   3      -27.681553
   4      -27.681551
   5      -27.624367
   6      -27.624361
   7      -27.590335
   8      -27.590334
   9      -18.322496
  10      -18.322463
  11      -18.317396
  12      -18.317395
  13      -18.296068
  14      -18.296061
  15      -18.255826
  16      -18.255754
  17      -18.169193
  18      -18.169177
  19      -18.159444
  20      -18.159396
  21      -18.158593
  22      -18.158526
  23      -18.151799
  24      -18.151766
  25      -18.087446
  26      -18.087439
  27      -18.074423
  28      -18.074412
  29      -18.028215
  30      -18.028199
  31      -18.014520
  32      -18.014501
  33      -18.007223
  34      -18.007218
  35      -17.984397
  36      -17.984379
  37      -17.981775
  38      -17.981765
  39      -17.963050
  40      -17.963019
  41      -17.956994
  42      -17.956978
  43      -17.925274
  44      -17.925248
  45      -17.922000
  46      -17.921978
  47      -17.900617
  48      -17.900557
  49      -13.895064
  50      -13.854855
  51      -13.718313
  52      -13.595711
  53      -13.567049
  54      -13.484048
  55      -12.567335
  56      -12.566164
  57      -12.390449
  58      -12.389784
  59      -12.267451
  60      -12.250119
  61      -12.242612
  62      -12.217662
  63      -12.039010
  64      -12.018269
  65      -11.984906
  66      -11.972718
  67      -11.906792
  68      -11.882811
  69      -11.784036
  70      -11.760649
  71      -11.467105
  72      -11.466614
  73      -10.247609
  74      -10.245482
  75      -10.228007
  76      -10.227936
  77      -10.139377
  78      -10.135228
  79       -9.793807
  80       -9.793640
  81       -9.784573
  82       -9.779447
  83       -9.750396
  84       -9.750290
  85       -9.677997
  86       -9.676385
  87       -9.674183
  88       -9.674051
  89       -9.634133
  90       -9.630375
  91       -9.468224
  92       -9.467724
  93       -9.432503
  94       -9.432385
  95       -9.111120
  96       -9.105672
  97       -5.095532
  98       -5.075639
  99       -4.870565
 100       -4.846286
 101       -4.832496
 102       -4.824809
 103       -4.403622
 104       -4.399442
 105       -2.196022
 106       -2.189603
 107       -1.456658
 108       -1.453014
 109       -1.077080
 110       -1.076671
 111       -0.988511
 112       -0.988351
 113       -0.905237
 114       -0.901557
 115       -0.650601
 116       -0.628288
 117       -0.598309
 118       -0.588888
 119       -0.275231
 120       -0.271437
 121        0.398786
 122        0.398822
 123        0.600611
 124        0.608560
 125        0.755941
 126        0.773283
 127        0.821707
 128        0.853112
 129        0.863707
 130        0.946605
 131        0.980961
 132        1.035971
 133        1.036856
 134        1.150984
 135        1.165196
 136        1.186607
 137        1.210380
 138        1.233509
 139        1.255247
 140        1.260867
 141        1.308966
 142        1.623605
 143        1.640967
 144        1.688182
 145        1.944115
 146        2.055785
 147        2.328766
 148        2.334291
 149        2.335602
 150        2.353649
 151        2.387604
 152        2.400415
 153        2.415245
 154        2.438376
 155        2.448677
 156        2.522961
 157        2.526551
 158        2.540280
 159        2.596551
 160        2.598329
 161        2.612976
 162        2.614058
 163        2.637761
 164        2.663329
 165        2.853929
 166        2.857788
 167        2.866202
 168        2.894409
 169        2.914259
 170        2.988077
 171        2.995420
 172        3.092936
 173        3.102529
 174        3.119897
 175        3.145845
 176        3.384720
 177        3.389864
 178        3.446258
 179        3.704065
 180        3.809727
 181        3.948096
 182        3.948574
 183        4.130945
 184        4.131687
 185        4.403599
 186        4.411294
 187        4.546665
 188        4.558974
 189        4.870285
 190        4.870822
 191        4.872628
 192        4.872978
 193        4.995971
 194        4.996866
 195        7.306842
 196        7.316233
 197        7.793201
 198        7.813999
 199        7.930786
 200        8.137153
 201        8.470355
 202        8.470838
 203        8.531779
 204        8.622311
 205        8.629289
 206        8.791555
 207        8.891265
 208        8.950338
 209        9.033760
 210        9.179580
 211        9.318556
 212        9.360318
 213        9.378895
 214        9.493874
 215        9.620807
 216        9.866132
 217        9.871335
 218        9.902857
 219       10.298128
 220       10.305112
 221       10.328188
 222       10.363866
 223       10.422025
 224       10.715458
 225       11.119496
 226       11.129989
 227       11.158564
 228       11.217311
 229       11.239589
 230       11.266081
 231       11.471081
 232       11.653268
 233       11.725299
 234       12.023345
 235       12.087695
 236       12.121726
 237       12.372116
 238       12.419875
 239       12.522585
 240       12.708078
 
  0.1333333E+00  0.3742002E-15  0.3742002E-15  0.2962963E-02
   1      -27.723092
   2      -27.723089
   3      -27.678351
   4      -27.678346
   5      -27.627476
   6      -27.627471
   7      -27.593146
   8      -27.593145
   9      -18.314704
  10      -18.314692
  11      -18.308044
  12      -18.308042
  13      -18.292177
  14      -18.292155
  15      -18.252539
  16      -18.252513
  17      -18.170189
  18      -18.170137
  19      -18.162429
  20      -18.162367
  21      -18.155198
  22      -18.155155
  23      -18.145778
  24      -18.145753
  25      -18.092486
  26      -18.092466
  27      -18.079323
  28      -18.079318
  29      -18.026016
  30      -18.026008
  31      -18.017185
  32      -18.017163
  33      -18.012795
  34      -18.012793
  35      -17.986492
  36      -17.986458
  37      -17.982421
  38      -17.982387
  39      -17.962213
  40      -17.962172
  41      -17.959015
  42      -17.959006
  43      -17.926475
  44      -17.926449
  45      -17.921200
  46      -17.921180
  47      -17.901236
  48      -17.901215
  49      -13.851675
  50      -13.815577
  51      -13.675994
  52      -13.563123
  53      -13.539055
  54      -13.462923
  55      -12.539875
  56      -12.538512
  57      -12.502531
  58      -12.502085
  59      -12.343477
  60      -12.311763
  61      -12.301667
  62      -12.251182
  63      -12.060437
  64      -12.000697
  65      -11.977848
  66      -11.940219
  67      -11.938390
  68      -11.914731
  69      -11.818367
  70      -11.794865
  71      -11.518190
  72      -11.517547
  73      -10.231493
  74      -10.229666
  75      -10.155520
  76      -10.155426
  77      -10.153446
  78      -10.148980
  79       -9.816643
  80       -9.810306
  81       -9.744731
  82       -9.744205
  83       -9.726471
  84       -9.726404
  85       -9.694594
  86       -9.694474
  87       -9.642913
  88       -9.638770
  89       -9.618574
  90       -9.617193
  91       -9.465625
  92       -9.465217
  93       -9.367166
  94       -9.366832
  95       -9.132696
  96       -9.127004
  97       -5.152328
  98       -5.134296
  99       -4.966741
 100       -4.946036
 101       -4.884541
 102       -4.877435
 103       -4.495672
 104       -4.492129
 105       -2.090457
 106       -2.088104
 107       -1.181404
 108       -1.179619
 109       -1.067118
 110       -1.067002
 111       -0.949583
 112       -0.949580
 113       -0.684274
 114       -0.677029
 115       -0.603717
 116       -0.586111
 117       -0.576391
 118       -0.575879
 119       -0.230112
 120       -0.219441
 121        0.354174
 122        0.354706
 123        0.515430
 124        0.526605
 125        0.717090
 126        0.744033
 127        0.751138
 128        0.826767
 129        0.851383
 130        1.034241
 131        1.060375
 132        1.061394
 133        1.073282
 134        1.090805
 135        1.165395
 136        1.192299
 137        1.202750
 138        1.247511
 139        1.379091
 140        1.425452
 141        1.431180
 142        1.603827
 143        1.642119
 144        1.718718
 145        1.926884
 146        2.026005
 147        2.229756
 148        2.246131
 149        2.252631
 150        2.256048
 151        2.278596
 152        2.283507
 153        2.354336
 154        2.432074
 155        2.432173
 156        2.482621
 157        2.528689
 158        2.540785
 159        2.585690
 160        2.606403
 161        2.615252
 162        2.617597
 163        2.622667
 164        2.712359
 165        2.819207
 166        2.847339
 167        2.877993
 168        2.949965
 169        2.951230
 170        2.974760
 171        3.030091
 172        3.076743
 173        3.183668
 174        3.225335
 175        3.233544
 176        3.275984
 177        3.297792
 178        3.480059
 179        3.682233
 180        3.768199
 181        4.117037
 182        4.121813
 183        4.247830
 184        4.247963
 185        4.374340
 186        4.398777
 187        4.530065
 188        4.545638
 189        4.802192
 190        4.806292
 191        4.839148
 192        4.839403
 193        4.900084
 194        4.900736
 195        7.227196
 196        7.240098
 197        7.800987
 198        7.805841
 199        7.951799
 200        8.145402
 201        8.297059
 202        8.307448
 203        8.317333
 204        8.319284
 205        8.357762
 206        8.401651
 207        8.916228
 208        9.029935
 209        9.044760
 210        9.084447
 211        9.447983
 212        9.474576
 213        9.493679
 214        9.523742
 215        9.532088
 216        9.560265
 217        9.582368
 218        9.799998
 219       10.142751
 220       10.257772
 221       10.383129
 222       10.415957
 223       10.481190
 224       10.854554
 225       11.079285
 226       11.121774
 227       11.273485
 228       11.366073
 229       11.403433
 230       11.467159
 231       11.543449
 232       11.659459
 233       11.925173
 234       12.012104
 235       12.036429
 236       12.148770
 237       12.429164
 238       12.541606
 239       12.560082
 240       12.723094
 
  0.2000000E+00  0.3742002E-15  0.3742002E-15  0.2962963E-02
   1      -27.717236
   2      -27.717236
   3      -27.673187
   4      -27.673181
   5      -27.632545
   6      -27.632544
   7      -27.597720
   8      -27.597718
   9      -18.302734
  10      -18.302693
  11      -18.293341
  12      -18.293298
  13      -18.286093
  14      -18.286064
  15      -18.247408
  16      -18.247379
  17      -18.173263
  18      -18.173152
  19      -18.165310
  20      -18.165233
  21      -18.148168
  22      -18.148135
  23      -18.137555
  24      -18.137555
  25      -18.101011
  26      -18.100992
  27      -18.087360
  28      -18.087360
  29      -18.022484
  30      -18.022469
  31      -18.022433
  32      -18.022408
  33      -18.021639
  34      -18.021635
  35      -17.988838
  36      -17.988831
  37      -17.983434
  38      -17.983384
  39      -17.964547
  40      -17.964533
  41      -17.958627
  42      -17.958614
  43      -17.928404
  44      -17.928383
  45      -17.919933
  46      -17.919896
  47      -17.902253
  48      -17.902237
  49      -13.780374
  50      -13.750270
  51      -13.606372
  52      -13.509481
  53      -13.493173
  54      -13.427599
  55      -12.627717
  56      -12.626583
  57      -12.494909
  58      -12.493279
  59      -12.458494
  60      -12.415085
  61      -12.400640
  62      -12.333443
  63      -12.090087
  64      -12.023009
  65      -11.984929
  66      -11.960669
  67      -11.954378
  68      -11.912359
  69      -11.864698
  70      -11.844615
  71      -11.596086
  72      -11.595771
  73      -10.204307
  74      -10.202811
  75      -10.149131
  76      -10.144332
  77      -10.051299
  78      -10.050896
  79       -9.834318
  80       -9.826820
  81       -9.727102
  82       -9.726986
  83       -9.692283
  84       -9.692185
  85       -9.682167
  86       -9.681562
  87       -9.656012
  88       -9.651375
  89       -9.566846
  90       -9.565607
  91       -9.459684
  92       -9.459544
  93       -9.286644
  94       -9.286420
  95       -9.161884
  96       -9.155881
  97       -5.221631
  98       -5.206093
  99       -5.084549
 100       -5.067736
 101       -4.961642
 102       -4.955850
 103       -4.629060
 104       -4.626488
 105       -1.923316
 106       -1.921276
 107       -1.032595
 108       -1.031755
 109       -0.886069
 110       -0.885779
 111       -0.803765
 112       -0.785811
 113       -0.545851
 114       -0.533951
 115       -0.530248
 116       -0.491156
 117       -0.390316
 118       -0.342484
 119       -0.144679
 120       -0.103882
 121        0.278036
 122        0.278434
 123        0.371781
 124        0.395882
 125        0.628529
 126        0.648800
 127        0.722963
 128        0.788072
 129        0.836140
 130        0.965055
 131        0.972105
 132        1.099768
 133        1.100089
 134        1.114897
 135        1.166179
 136        1.189030
 137        1.197053
 138        1.354946
 139        1.584496
 140        1.616724
 141        1.648911
 142        1.658865
 143        1.674549
 144        1.826813
 145        1.917835
 146        1.962769
 147        2.082839
 148        2.085502
 149        2.096108
 150        2.139720
 151        2.163168
 152        2.169667
 153        2.352419
 154        2.408342
 155        2.431418
 156        2.464405
 157        2.519904
 158        2.528213
 159        2.558403
 160        2.602046
 161        2.615889
 162        2.623891
 163        2.651737
 164        2.772380
 165        2.782182
 166        2.810102
 167        2.872423
 168        2.882693
 169        2.898963
 170        2.964867
 171        3.055109
 172        3.061668
 173        3.226109
 174        3.266501
 175        3.290391
 176        3.417922
 177        3.419463
 178        3.537015
 179        3.674740
 180        3.739537
 181        4.095389
 182        4.106407
 183        4.343574
 184        4.389167
 185        4.504234
 186        4.524371
 187        4.597558
 188        4.597768
 189        4.692521
 190        4.703574
 191        4.747548
 192        4.747682
 193        4.786498
 194        4.786697
 195        7.115337
 196        7.130203
 197        7.737523
 198        7.754562
 199        7.864406
 200        7.869057
 201        8.019509
 202        8.034566
 203        8.080720
 204        8.081416
 205        8.109833
 206        8.177524
 207        8.940997
 208        8.960270
 209        9.068644
 210        9.098273
 211        9.099451
 212        9.162187
 213        9.264076
 214        9.597707
 215        9.618176
 216        9.658167
 217        9.673248
 218        9.912570
 219        9.972696
 220       10.124647
 221       10.439101
 222       10.523135
 223       10.570202
 224       10.958131
 225       11.021560
 226       11.091226
 227       11.324069
 228       11.535044
 229       11.565337
 230       11.665837
 231       11.677045
 232       11.716164
 233       11.904288
 234       12.050010
 235       12.136328
 236       12.236275
 237       12.497211
 238       12.510034
 239       12.548459
 240       12.713754
 
  0.2666667E+00  0.3742002E-15  0.3742002E-15  0.2962963E-02
   1      -27.709476
   2      -27.709473
   3      -27.666325
   4      -27.666325
   5      -27.639416
   6      -27.639410
   7      -27.603901
   8      -27.603895
   9      -18.288233
  10      -18.288159
  11      -18.278576
  12      -18.278524
  13      -18.274264
  14      -18.274252
  15      -18.240802
  16      -18.240791
  17      -18.177905
  18      -18.177821
  19      -18.167660
  20      -18.167562
  21      -18.137979
  22      -18.137960
  23      -18.127141
  24      -18.127119
  25      -18.113098
  26      -18.113089
  27      -18.098378
  28      -18.098361
  29      -18.033247
  30      -18.033238
  31      -18.030930
  32      -18.030919
  33      -18.017598
  34      -18.017595
  35      -17.990510
  36      -17.990497
  37      -17.984688
  38      -17.984685
  39      -17.969724
  40      -17.969707
  41      -17.956037
  42      -17.956022
  43      -17.930981
  44      -17.930977
  45      -17.918257
  46      -17.918220
  47      -17.903636
  48      -17.903633
  49      -13.682697
  50      -13.660266
  51      -13.511639
  52      -13.434966
  53      -13.430832
  54      -13.378752
  55      -12.754097
  56      -12.750317
  57      -12.601475
  58      -12.541039
  59      -12.534450
  60      -12.452991
  61      -12.434001
  62      -12.431176
  63      -12.122202
  64      -12.046570
  65      -12.030531
  66      -12.012799
  67      -11.959064
  68      -11.912257
  69      -11.908481
  70      -11.900932
  71      -11.693772
  72      -11.693602
  73      -10.166599
  74      -10.165392
  75      -10.113026
  76      -10.108175
  77       -9.933138
  78       -9.932396
  79       -9.838698
  80       -9.830429
  81       -9.769949
  82       -9.769845
  83       -9.675593
  84       -9.670323
  85       -9.649001
  86       -9.648703
  87       -9.632326
  88       -9.631997
  89       -9.535146
  90       -9.533863
  91       -9.449246
  92       -9.449128
  93       -9.210884
  94       -9.210572
  95       -9.185379
  96       -9.179213
  97       -5.280699
  98       -5.267501
  99       -5.192067
 100       -5.178756
 101       -5.051913
 102       -5.048049
 103       -4.781787
 104       -4.780972
 105       -1.706475
 106       -1.700536
 107       -0.960724
 108       -0.959317
 109       -0.798673
 110       -0.798325
 111       -0.471927
 112       -0.454974
 113       -0.441485
 114       -0.417295
 115       -0.376304
 116       -0.367132
 117       -0.147172
 118       -0.002312
 119        0.020364
 120        0.137859
 121        0.171632
 122        0.172867
 123        0.185610
 124        0.232420
 125        0.526267
 126        0.541575
 127        0.707592
 128        0.758075
 129        0.819637
 130        0.845886
 131        0.863193
 132        1.081853
 133        1.148469
 134        1.154990
 135        1.181033
 136        1.183083
 137        1.185845
 138        1.464117
 139        1.580451
 140        1.695689
 141        1.745692
 142        1.782099
 143        1.865672
 144        1.879051
 145        1.920073
 146        1.924953
 147        1.936140
 148        2.023221
 149        2.052334
 150        2.063771
 151        2.073592
 152        2.075007
 153        2.347348
 154        2.383410
 155        2.440689
 156        2.451392
 157        2.507318
 158        2.517048
 159        2.525798
 160        2.577002
 161        2.641672
 162        2.646990
 163        2.683922
 164        2.739637
 165        2.765782
 166        2.768533
 167        2.824120
 168        2.852205
 169        2.858337
 170        2.924162
 171        3.052666
 172        3.070568
 173        3.236033
 174        3.275433
 175        3.419647
 176        3.614181
 177        3.627745
 178        3.628109
 179        3.701725
 180        3.750762
 181        4.066290
 182        4.086087
 183        4.320560
 184        4.382116
 185        4.470294
 186        4.497825
 187        4.550239
 188        4.550475
 189        4.551106
 190        4.569649
 191        4.712388
 192        4.713149
 193        4.981113
 194        4.981349
 195        6.988307
 196        7.004761
 197        7.390526
 198        7.404316
 199        7.563730
 200        7.598091
 201        7.713511
 202        7.777918
 203        7.780249
 204        7.787944
 205        8.166894
 206        8.242597
 207        8.716256
 208        8.723571
 209        8.782404
 210        8.991877
 211        9.034572
 212        9.110189
 213        9.282187
 214        9.660311
 215        9.699526
 216        9.725468
 217        9.902665
 218        9.944091
 219        9.967986
 220        9.984704
 221       10.417934
 222       10.671398
 223       10.689865
 224       10.766128
 225       11.091012
 226       11.185863
 227       11.389517
 228       11.679357
 229       11.719096
 230       11.786200
 231       11.827782
 232       11.857574
 233       11.891454
 234       12.062246
 235       12.324769
 236       12.372616
 237       12.405983
 238       12.546780
 239       12.616484
 240       12.659486
 
  0.3333333E+00  0.3742002E-15  0.3742002E-15  0.2962963E-02
   1      -27.700195
   2      -27.700190
   3      -27.658121
   4      -27.658109
   5      -27.647833
   6      -27.647831
   7      -27.611462
   8      -27.611454
   9      -18.273709
  10      -18.273600
  11      -18.270511
  12      -18.270460
  13      -18.252563
  14      -18.252527
  15      -18.233300
  16      -18.233265
  17      -18.183268
  18      -18.183196
  19      -18.168217
  20      -18.168101
  21      -18.128669
  22      -18.128655
  23      -18.125268
  24      -18.125241
  25      -18.114749
  26      -18.114723
  27      -18.111964
  28      -18.111928
  29      -18.047063
  30      -18.047042
  31      -18.042310
  32      -18.042294
  33      -18.011757
  34      -18.011718
  35      -17.991207
  36      -17.991188
  37      -17.986153
  38      -17.986152
  39      -17.976034
  40      -17.976012
  41      -17.952817
  42      -17.952813
  43      -17.934122
  44      -17.934121
  45      -17.916267
  46      -17.916235
  47      -17.905348
  48      -17.905336
  49      -13.561267
  50      -13.547206
  51      -13.393784
  52      -13.353409
  53      -13.340663
  54      -13.317268
  55      -12.877646
  56      -12.868190
  57      -12.761921
  58      -12.692141
  59      -12.680015
  60      -12.599150
  61      -12.358137
  62      -12.354094
  63      -12.150066
  64      -12.066460
  65      -12.066220
  66      -12.062490
  67      -11.987636
  68      -11.955887
  69      -11.951341
  70      -11.924445
  71      -11.803848
  72      -11.802715
  73      -10.119777
  74      -10.118792
  75      -10.046068
  76      -10.041425
  77       -9.832113
  78       -9.823599
  79       -9.822963
  80       -9.822210
  81       -9.820510
  82       -9.820400
  83       -9.685903
  84       -9.679377
  85       -9.624445
  86       -9.624082
  87       -9.609080
  88       -9.608969
  89       -9.525969
  90       -9.524767
  91       -9.441279
  92       -9.441249
  93       -9.185310
  94       -9.179741
  95       -9.152788
  96       -9.152446
  97       -5.312939
  98       -5.301954
  99       -5.270440
 100       -5.259999
 101       -5.142682
 102       -5.141115
 103       -4.935576
 104       -4.934201
 105       -1.454402
 106       -1.443024
 107       -0.847869
 108       -0.845845
 109       -0.689743
 110       -0.688877
 111       -0.377682
 112       -0.376968
 113       -0.341091
 114       -0.237339
 115       -0.166770
 116       -0.113941
 117       -0.020799
 118        0.037456
 119        0.041146
 120        0.042031
 121        0.080419
 122        0.159102
 123        0.251169
 124        0.338415
 125        0.465627
 126        0.481435
 127        0.802727
 128        0.808814
 129        0.809088
 130        0.809415
 131        0.863872
 132        1.010584
 133        1.189392
 134        1.198942
 135        1.218078
 136        1.224328
 137        1.249249
 138        1.524756
 139        1.548651
 140        1.551001
 141        1.605633
 142        1.739142
 143        1.769903
 144        1.805151
 145        1.806883
 146        1.838831
 147        1.994308
 148        2.005467
 149        2.109122
 150        2.153559
 151        2.170929
 152        2.252214
 153        2.329359
 154        2.367675
 155        2.461440
 156        2.467693
 157        2.491026
 158        2.512874
 159        2.537070
 160        2.537995
 161        2.638518
 162        2.642555
 163        2.681680
 164        2.698856
 165        2.719696
 166        2.756493
 167        2.808973
 168        2.833724
 169        2.869595
 170        2.921141
 171        3.039186
 172        3.093075
 173        3.306091
 174        3.328775
 175        3.565802
 176        3.711260
 177        3.759761
 178        3.797608
 179        3.833202
 180        3.833501
 181        4.030483
 182        4.059951
 183        4.309604
 184        4.322643
 185        4.323038
 186        4.380399
 187        4.389612
 188        4.418700
 189        4.431180
 190        4.467831
 191        4.617590
 192        4.619097
 193        5.383532
 194        5.383906
 195        6.863903
 196        6.876204
 197        6.985953
 198        7.008156
 199        7.272881
 200        7.309988
 201        7.393641