<?xml version="1.0" encoding="ISO-8859-1"?>
<modeling>
 <generator>
  <i name="program" type="string">vasp </i>
  <i name="version" type="string">5.2.12  </i>
  <i name="subversion" type="string">26May11 complex  parallel </i>
  <i name="platform" type="string">LinuxIFC </i>
  <i name="date" type="string">2017 01 15 </i>
  <i name="time" type="string">11:44:11 </i>
 </generator>
 <incar>
  <i type="int" name="ISTART">     0</i>
  <i type="string" name="PREC">accurate</i>
  <i type="string" name="ALGO"> Normal</i>
  <i type="int" name="ICHARG">     2</i>
  <i type="int" name="NELM">   200</i>
  <i type="int" name="NELMIN">     5</i>
  <i type="int" name="IBRION">    -1</i>
  <i name="EDIFF">      0.00001000</i>
  <i type="int" name="ISMEAR">    -5</i>
  <i type="logical" name="LWAVE"> F  </i>
  <i type="logical" name="LAECHG"> T  </i>
  <i type="int" name="NELM">   200</i>
  <i type="logical" name="LPEAD"> F  </i>
  <i type="logical" name="LCALCPOL"> F  </i>
  <i type="logical" name="LCALCEPS"> F  </i>
  <v name="EFIELD_PEAD">      0.00000000      0.00000000      0.00000000</v>
  <i type="logical" name="LEFG"> F  </i>
  <v name="QUAD_EFG">      1.00000000      1.00000000      1.00000000      1.00000000</v>
  <i type="logical" name="LRHFATM"> F  </i>
  <i type="string" name="METAGGA">--</i>
  <i type="int" name="LMAXTAU">     0</i>
 </incar>
 <kpoints>
  <generation param="Gamma">
   <v type="int" name="divisions">      15       15        3 </v>
   <v name="usershift">      0.00000000       0.00000000       0.00000000 </v>
   <v name="genvec1">      0.06666667       0.00000000       0.00000000 </v>
   <v name="genvec2">      0.00000000       0.06666667       0.00000000 </v>
   <v name="genvec3">      0.00000000       0.00000000       0.33333333 </v>
   <v name="shift">      0.00000000       0.00000000       0.00000000 </v>
  </generation>
  <varray name="kpointlist" >
   <v>       0.00000000       0.00000000       0.00000000 </v>
   <v>       0.06666667       0.00000000       0.00000000 </v>
   <v>       0.13333333       0.00000000       0.00000000 </v>
   <v>       0.20000000       0.00000000       0.00000000 </v>
   <v>       0.26666667       0.00000000       0.00000000 </v>
   <v>       0.33333333       0.00000000       0.00000000 </v>
   <v>       0.40000000       0.00000000       0.00000000 </v>
   <v>       0.46666667       0.00000000       0.00000000 </v>
   <v>       0.00000000       0.06666667       0.00000000 </v>
   <v>       0.06666667       0.06666667       0.00000000 </v>
   <v>       0.13333333       0.06666667       0.00000000 </v>
   <v>       0.20000000       0.06666667       0.00000000 </v>
   <v>       0.26666667       0.06666667       0.00000000 </v>
   <v>       0.33333333       0.06666667       0.00000000 </v>
   <v>       0.40000000       0.06666667       0.00000000 </v>
   <v>       0.46666667       0.06666667       0.00000000 </v>
   <v>       0.00000000       0.13333333       0.00000000 </v>
   <v>       0.06666667       0.13333333       0.00000000 </v>
   <v>       0.13333333       0.13333333       0.00000000 </v>
   <v>       0.20000000       0.13333333       0.00000000 </v>
   <v>       0.26666667       0.13333333       0.00000000 </v>
   <v>       0.33333333       0.13333333       0.00000000 </v>
   <v>       0.40000000       0.13333333       0.00000000 </v>
   <v>       0.46666667       0.13333333       0.00000000 </v>
   <v>       0.00000000       0.20000000       0.00000000 </v>
   <v>       0.06666667       0.20000000       0.00000000 </v>
   <v>       0.13333333       0.20000000       0.00000000 </v>
   <v>       0.20000000       0.20000000       0.00000000 </v>
   <v>       0.26666667       0.20000000       0.00000000 </v>
   <v>       0.33333333       0.20000000       0.00000000 </v>
   <v>       0.40000000       0.20000000       0.00000000 </v>
   <v>       0.46666667       0.20000000       0.00000000 </v>
   <v>       0.00000000       0.26666667       0.00000000 </v>
   <v>       0.06666667       0.26666667       0.00000000 </v>
   <v>       0.13333333       0.26666667       0.00000000 </v>
   <v>       0.20000000       0.26666667       0.00000000 </v>
   <v>       0.26666667       0.26666667       0.00000000 </v>
   <v>       0.33333333       0.26666667       0.00000000 </v>
   <v>       0.40000000       0.26666667       0.00000000 </v>
   <v>       0.46666667       0.26666667       0.00000000 </v>
   <v>       0.00000000       0.33333333       0.00000000 </v>
   <v>       0.06666667       0.33333333       0.00000000 </v>
   <v>       0.13333333       0.33333333       0.00000000 </v>
   <v>       0.20000000       0.33333333       0.00000000 </v>
   <v>       0.26666667       0.33333333       0.00000000 </v>
   <v>       0.33333333       0.33333333       0.00000000 </v>
   <v>       0.40000000       0.33333333       0.00000000 </v>
   <v>       0.46666667       0.33333333       0.00000000 </v>
   <v>       0.00000000       0.40000000       0.00000000 </v>
   <v>       0.06666667       0.40000000       0.00000000 </v>
   <v>       0.13333333       0.40000000       0.00000000 </v>
   <v>       0.20000000       0.40000000       0.00000000 </v>
   <v>       0.26666667       0.40000000       0.00000000 </v>
   <v>       0.33333333       0.40000000       0.00000000 </v>
   <v>       0.40000000       0.40000000       0.00000000 </v>
   <v>       0.46666667       0.40000000       0.00000000 </v>
   <v>       0.00000000       0.46666667       0.00000000 </v>
   <v>       0.06666667       0.46666667       0.00000000 </v>
   <v>       0.13333333       0.46666667       0.00000000 </v>
   <v>       0.20000000       0.46666667       0.00000000 </v>
   <v>       0.26666667       0.46666667       0.00000000 </v>
   <v>       0.33333333       0.46666667       0.00000000 </v>
   <v>       0.40000000       0.46666667       0.00000000 </v>
   <v>       0.46666667       0.46666667       0.00000000 </v>
   <v>       0.00000000       0.00000000       0.33333333 </v>
   <v>       0.06666667       0.00000000       0.33333333 </v>
   <v>       0.13333333       0.00000000       0.33333333 </v>
   <v>       0.20000000       0.00000000       0.33333333 </v>
   <v>       0.26666667       0.00000000       0.33333333 </v>
   <v>       0.33333333       0.00000000       0.33333333 </v>
   <v>       0.40000000       0.00000000       0.33333333 </v>
   <v>       0.46666667       0.00000000       0.33333333 </v>
   <v>       0.00000000       0.06666667       0.33333333 </v>
   <v>       0.06666667       0.06666667       0.33333333 </v>
   <v>       0.13333333       0.06666667       0.33333333 </v>
   <v>       0.20000000       0.06666667       0.33333333 </v>
   <v>       0.26666667       0.06666667       0.33333333 </v>
   <v>       0.33333333       0.06666667       0.33333333 </v>
   <v>       0.40000000       0.06666667       0.33333333 </v>
   <v>       0.46666667       0.06666667       0.33333333 </v>
   <v>       0.00000000       0.13333333       0.33333333 </v>
   <v>       0.06666667       0.13333333       0.33333333 </v>
   <v>       0.13333333       0.13333333       0.33333333 </v>
   <v>       0.20000000       0.13333333       0.33333333 </v>
   <v>       0.26666667       0.13333333       0.33333333 </v>
   <v>       0.33333333       0.13333333       0.33333333 </v>
   <v>       0.40000000       0.13333333       0.33333333 </v>
   <v>       0.46666667       0.13333333       0.33333333 </v>
   <v>       0.00000000       0.20000000       0.33333333 </v>
   <v>       0.06666667       0.20000000       0.33333333 </v>
   <v>       0.13333333       0.20000000       0.33333333 </v>
   <v>       0.20000000       0.20000000       0.33333333 </v>
   <v>       0.26666667       0.20000000       0.33333333 </v>
   <v>       0.33333333       0.20000000       0.33333333 </v>
   <v>       0.40000000       0.20000000       0.33333333 </v>
   <v>       0.46666667       0.20000000       0.33333333 </v>
   <v>       0.00000000       0.26666667       0.33333333 </v>
   <v>       0.06666667       0.26666667       0.33333333 </v>
   <v>       0.13333333       0.26666667       0.33333333 </v>
   <v>       0.20000000       0.26666667       0.33333333 </v>
   <v>       0.26666667       0.26666667       0.33333333 </v>
   <v>       0.33333333       0.26666667       0.33333333 </v>
   <v>       0.40000000       0.26666667       0.33333333 </v>
   <v>       0.46666667       0.26666667       0.33333333 </v>
   <v>       0.00000000       0.33333333       0.33333333 </v>
   <v>       0.06666667       0.33333333       0.33333333 </v>
   <v>       0.13333333       0.33333333       0.33333333 </v>
   <v>       0.20000000       0.33333333       0.33333333 </v>
   <v>       0.26666667       0.33333333       0.33333333 </v>
   <v>       0.33333333       0.33333333       0.33333333 </v>
   <v>       0.40000000       0.33333333       0.33333333 </v>
   <v>       0.46666667       0.33333333       0.33333333 </v>
   <v>       0.00000000       0.40000000       0.33333333 </v>
   <v>       0.06666667       0.40000000       0.33333333 </v>
   <v>       0.13333333       0.40000000       0.33333333 </v>
   <v>       0.20000000       0.40000000       0.33333333 </v>
   <v>       0.26666667       0.40000000       0.33333333 </v>
   <v>       0.33333333       0.40000000       0.33333333 </v>
   <v>       0.40000000       0.40000000       0.33333333 </v>
   <v>       0.46666667       0.40000000       0.33333333 </v>
   <v>       0.00000000       0.46666667       0.33333333 </v>
   <v>       0.06666667       0.46666667       0.33333333 </v>
   <v>       0.13333333       0.46666667       0.33333333 </v>
   <v>       0.20000000       0.46666667       0.33333333 </v>
   <v>       0.26666667       0.46666667       0.33333333 </v>
   <v>       0.33333333       0.46666667       0.33333333 </v>
   <v>       0.40000000       0.46666667       0.33333333 </v>
   <v>       0.46666667       0.46666667       0.33333333 </v>
  </varray>
  <varray name="weights" >
   <v>       0.00148148 </v>
   <v>       0.00296296 </v>
   <v>       0.00296296 </v>
   <v>       0.00296296 </v>
   <v>       0.00296296 </v>
   <v>       0.00296296 </v>
   <v>       0.00296296 </v>
   <v>       0.00296296 </v>
   <v>       0.00296296 </v>
   <v>       0.00592593 </v>
   <v>       0.00592593 </v>
   <v>       0.00592593 </v>
   <v>       0.00592593 </v>
   <v>       0.00592593 </v>
   <v>       0.00592593 </v>
   <v>       0.00592593 </v>
   <v>       0.00296296 </v>
   <v>       0.00592593 </v>
   <v>       0.00592593 </v>
   <v>       0.00592593 </v>
   <v>       0.00592593 </v>
   <v>       0.00592593 </v>
   <v>       0.00592593 </v>
   <v>       0.00592593 </v>
   <v>       0.00296296 </v>
   <v>       0.00592593 </v>
   <v>       0.00592593 </v>
   <v>       0.00592593 </v>
   <v>       0.00592593 </v>
   <v>       0.00592593 </v>
   <v>       0.00592593 </v>
   <v>       0.00592593 </v>
   <v>       0.00296296 </v>
   <v>       0.00592593 </v>
   <v>       0.00592593 </v>
   <v>       0.00592593 </v>
   <v>       0.00592593 </v>
   <v>       0.00592593 </v>
   <v>       0.00592593 </v>
   <v>       0.00592593 </v>
   <v>       0.00296296 </v>
   <v>       0.00592593 </v>
   <v>       0.00592593 </v>
   <v>       0.00592593 </v>
   <v>       0.00592593 </v>
   <v>       0.00592593 </v>
   <v>       0.00592593 </v>
   <v>       0.00592593 </v>
   <v>       0.00296296 </v>
   <v>       0.00592593 </v>
   <v>       0.00592593 </v>
   <v>       0.00592593 </v>
   <v>       0.00592593 </v>
   <v>       0.00592593 </v>
   <v>       0.00592593 </v>
   <v>       0.00592593 </v>
   <v>       0.00296296 </v>
   <v>       0.00592593 </v>
   <v>       0.00592593 </v>
   <v>       0.00592593 </v>
   <v>       0.00592593 </v>
   <v>       0.00592593 </v>
   <v>       0.00592593 </v>
   <v>       0.00592593 </v>
   <v>       0.00296296 </v>
   <v>       0.00592593 </v>
   <v>       0.00592593 </v>
   <v>       0.00592593 </v>
   <v>       0.00592593 </v>
   <v>       0.00592593 </v>
   <v>       0.00592593 </v>
   <v>       0.00592593 </v>
   <v>       0.00592593 </v>
   <v>       0.01185185 </v>
   <v>       0.01185185 </v>
   <v>       0.01185185 </v>
   <v>       0.01185185 </v>
   <v>       0.01185185 </v>
   <v>       0.01185185 </v>
   <v>       0.01185185 </v>
   <v>       0.00592593 </v>
   <v>       0.01185185 </v>
   <v>       0.01185185 </v>
   <v>       0.01185185 </v>
   <v>       0.01185185 </v>
   <v>       0.01185185 </v>
   <v>       0.01185185 </v>
   <v>       0.01185185 </v>
   <v>       0.00592593 </v>
   <v>       0.01185185 </v>
   <v>       0.01185185 </v>
   <v>       0.01185185 </v>
   <v>       0.01185185 </v>
   <v>       0.01185185 </v>
   <v>       0.01185185 </v>
   <v>       0.01185185 </v>
   <v>       0.00592593 </v>
   <v>       0.01185185 </v>
   <v>       0.01185185 </v>
   <v>       0.01185185 </v>
   <v>       0.01185185 </v>
   <v>       0.01185185 </v>
   <v>       0.01185185 </v>
   <v>       0.01185185 </v>
   <v>       0.00592593 </v>
   <v>       0.01185185 </v>
   <v>       0.01185185 </v>
   <v>       0.01185185 </v>
   <v>       0.01185185 </v>
   <v>       0.01185185 </v>
   <v>       0.01185185 </v>
   <v>       0.01185185 </v>
   <v>       0.00592593 </v>
   <v>       0.01185185 </v>
   <v>       0.01185185 </v>
   <v>       0.01185185 </v>
   <v>       0.01185185 </v>
   <v>       0.01185185 </v>
   <v>       0.01185185 </v>
   <v>       0.01185185 </v>
   <v>       0.00592593 </v>
   <v>       0.01185185 </v>
   <v>       0.01185185 </v>
   <v>       0.01185185 </v>
   <v>       0.01185185 </v>
   <v>       0.01185185 </v>
   <v>       0.01185185 </v>
   <v>       0.01185185 </v>
  </varray>
  <varray name="tetrahedronlist"  type="int" >
   <v type="int" >        2        1        2       10       65 </v>
   <v type="int" >        2        1        9       10       65 </v>
   <v type="int" >        2        9       10       65       73 </v>
   <v type="int" >        2        2       10       65       66 </v>
   <v type="int" >        2       10       65       66       74 </v>
   <v type="int" >        2       10       65       73       74 </v>
   <v type="int" >        2        2        3       11       66 </v>
   <v type="int" >        2        2       10       11       66 </v>
   <v type="int" >        2       10       11       66       74 </v>
   <v type="int" >        2        3       11       66       67 </v>
   <v type="int" >        2       11       66       67       75 </v>
   <v type="int" >        2       11       66       74       75 </v>
   <v type="int" >        2        3        4       12       67 </v>
   <v type="int" >        2        3       11       12       67 </v>
   <v type="int" >        2       11       12       67       75 </v>
   <v type="int" >        2        4       12       67       68 </v>
   <v type="int" >        2       12       67       68       76 </v>
   <v type="int" >        2       12       67       75       76 </v>
   <v type="int" >        2        4        5       13       68 </v>
   <v type="int" >        2        4       12       13       68 </v>
   <v type="int" >        2       12       13       68       76 </v>
   <v type="int" >        2        5       13       68       69 </v>
   <v type="int" >        2       13       68       69       77 </v>
   <v type="int" >        2       13       68       76       77 </v>
   <v type="int" >        2        5        6       14       69 </v>
   <v type="int" >        2        5       13       14       69 </v>
   <v type="int" >        2       13       14       69       77 </v>
   <v type="int" >        2        6       14       69       70 </v>
   <v type="int" >        2       14       69       70       78 </v>
   <v type="int" >        2       14       69       77       78 </v>
   <v type="int" >        2        6        7       15       70 </v>
   <v type="int" >        2        6       14       15       70 </v>
   <v type="int" >        2       14       15       70       78 </v>
   <v type="int" >        2        7       15       70       71 </v>
   <v type="int" >        2       15       70       71       79 </v>
   <v type="int" >        2       15       70       78       79 </v>
   <v type="int" >        2        7        8       16       71 </v>
   <v type="int" >        2        7       15       16       71 </v>
   <v type="int" >        2       15       16       71       79 </v>
   <v type="int" >        2        8       16       71       72 </v>
   <v type="int" >        2       16       71       72       80 </v>
   <v type="int" >        2       16       71       79       80 </v>
   <v type="int" >        2        8        8       16       72 </v>
   <v type="int" >        2        8       16       16       72 </v>
   <v type="int" >        2       16       16       72       80 </v>
   <v type="int" >        2        8       16       72       72 </v>
   <v type="int" >        2       16       72       72       80 </v>
   <v type="int" >        2       16       72       80       80 </v>
   <v type="int" >        2        7        8       15       72 </v>
   <v type="int" >        2        8       15       16       72 </v>
   <v type="int" >        2       15       16       72       80 </v>
   <v type="int" >        2        7       15       71       72 </v>
   <v type="int" >        2       15       71       72       79 </v>
   <v type="int" >        2       15       72       79       80 </v>
   <v type="int" >        2        6        7       14       71 </v>
   <v type="int" >        2        7       14       15       71 </v>
   <v type="int" >        2       14       15       71       79 </v>
   <v type="int" >        2        6       14       70       71 </v>
   <v type="int" >        2       14       70       71       78 </v>
   <v type="int" >        2       14       71       78       79 </v>
   <v type="int" >        2        5        6       13       70 </v>
   <v type="int" >        2        6       13       14       70 </v>
   <v type="int" >        2       13       14       70       78 </v>
   <v type="int" >        2        5       13       69       70 </v>
   <v type="int" >        2       13       69       70       77 </v>
   <v type="int" >        2       13       70       77       78 </v>
   <v type="int" >        2        4        5       12       69 </v>
   <v type="int" >        2        5       12       13       69 </v>
   <v type="int" >        2       12       13       69       77 </v>
   <v type="int" >        2        4       12       68       69 </v>
   <v type="int" >        2       12       68       69       76 </v>
   <v type="int" >        2       12       69       76       77 </v>
   <v type="int" >        2        3        4       11       68 </v>
   <v type="int" >        2        4       11       12       68 </v>
   <v type="int" >        2       11       12       68       76 </v>
   <v type="int" >        2        3       11       67       68 </v>
   <v type="int" >        2       11       67       68       75 </v>
   <v type="int" >        2       11       68       75       76 </v>
   <v type="int" >        2        2        3       10       67 </v>
   <v type="int" >        2        3       10       11       67 </v>
   <v type="int" >        2       10       11       67       75 </v>
   <v type="int" >        2        2       10       66       67 </v>
   <v type="int" >        2       10       66       67       74 </v>
   <v type="int" >        2       10       67       74       75 </v>
   <v type="int" >        2        1        2        9       66 </v>
   <v type="int" >        2        2        9       10       66 </v>
   <v type="int" >        2        9       10       66       74 </v>
   <v type="int" >        2        1        9       65       66 </v>
   <v type="int" >        2        9       65       66       73 </v>
   <v type="int" >        2        9       66       73       74 </v>
   <v type="int" >        2        9       10       18       73 </v>
   <v type="int" >        2        9       17       18       73 </v>
   <v type="int" >        2       17       18       73       81 </v>
   <v type="int" >        2       10       18       73       74 </v>
   <v type="int" >        2       18       73       74       82 </v>
   <v type="int" >        2       18       73       81       82 </v>
   <v type="int" >        2       10       11       19       74 </v>
   <v type="int" >        2       10       18       19       74 </v>
   <v type="int" >        2       18       19       74       82 </v>
   <v type="int" >        2       11       19       74       75 </v>
   <v type="int" >        2       19       74       75       83 </v>
   <v type="int" >        2       19       74       82       83 </v>
   <v type="int" >        2       11       12       20       75 </v>
   <v type="int" >        2       11       19       20       75 </v>
   <v type="int" >        2       19       20       75       83 </v>
   <v type="int" >        2       12       20       75       76 </v>
   <v type="int" >        2       20       75       76       84 </v>
   <v type="int" >        2       20       75       83       84 </v>
   <v type="int" >        2       12       13       21       76 </v>
   <v type="int" >        2       12       20       21       76 </v>
   <v type="int" >        2       20       21       76       84 </v>
   <v type="int" >        2       13       21       76       77 </v>
   <v type="int" >        2       21       76       77       85 </v>
   <v type="int" >        2       21       76       84       85 </v>
   <v type="int" >        2       13       14       22       77 </v>
   <v type="int" >        2       13       21       22       77 </v>
   <v type="int" >        2       21       22       77       85 </v>
   <v type="int" >        2       14       22       77       78 </v>
   <v type="int" >        2       22       77       78       86 </v>
   <v type="int" >        2       22       77       85       86 </v>
   <v type="int" >        2       14       15       23       78 </v>
   <v type="int" >        2       14       22       23       78 </v>
   <v type="int" >        2       22       23       78       86 </v>
   <v type="int" >        2       15       23       78       79 </v>
   <v type="int" >        2       23       78       79       87 </v>
   <v type="int" >        2       23       78       86       87 </v>
   <v type="int" >        2       15       16       24       79 </v>
   <v type="int" >        2       15       23       24       79 </v>
   <v type="int" >        2       23       24       79       87 </v>
   <v type="int" >        2       16       24       79       80 </v>
   <v type="int" >        2       24       79       80       88 </v>
   <v type="int" >        2       24       79       87       88 </v>
   <v type="int" >        2       16       16       24       80 </v>
   <v type="int" >        2       16       24       24       80 </v>
   <v type="int" >        2       24       24       80       88 </v>
   <v type="int" >        2       16       24       80       80 </v>
   <v type="int" >        2       24       80       80       88 </v>
   <v type="int" >        2       24       80       88       88 </v>
   <v type="int" >        2       15       16       23       80 </v>
   <v type="int" >        2       16       23       24       80 </v>
   <v type="int" >        2       23       24       80       88 </v>
   <v type="int" >        2       15       23       79       80 </v>
   <v type="int" >        2       23       79       80       87 </v>
   <v type="int" >        2       23       80       87       88 </v>
   <v type="int" >        2       14       15       22       79 </v>
   <v type="int" >        2       15       22       23       79 </v>
   <v type="int" >        2       22       23       79       87 </v>
   <v type="int" >        2       14       22       78       79 </v>
   <v type="int" >        2       22       78       79       86 </v>
   <v type="int" >        2       22       79       86       87 </v>
   <v type="int" >        2       13       14       21       78 </v>
   <v type="int" >        2       14       21       22       78 </v>
   <v type="int" >        2       21       22       78       86 </v>
   <v type="int" >        2       13       21       77       78 </v>
   <v type="int" >        2       21       77       78       85 </v>
   <v type="int" >        2       21       78       85       86 </v>
   <v type="int" >        2       12       13       20       77 </v>
   <v type="int" >        2       13       20       21       77 </v>
   <v type="int" >        2       20       21       77       85 </v>
   <v type="int" >        2       12       20       76       77 </v>
   <v type="int" >        2       20       76       77       84 </v>
   <v type="int" >        2       20       77       84       85 </v>
   <v type="int" >        2       11       12       19       76 </v>
   <v type="int" >        2       12       19       20       76 </v>
   <v type="int" >        2       19       20       76       84 </v>
   <v type="int" >        2       11       19       75       76 </v>
   <v type="int" >        2       19       75       76       83 </v>
   <v type="int" >        2       19       76       83       84 </v>
   <v type="int" >        2       10       11       18       75 </v>
   <v type="int" >        2       11       18       19       75 </v>
   <v type="int" >        2       18       19       75       83 </v>
   <v type="int" >        2       10       18       74       75 </v>
   <v type="int" >        2       18       74       75       82 </v>
   <v type="int" >        2       18       75       82       83 </v>
   <v type="int" >        2        9       10       17       74 </v>
   <v type="int" >        2       10       17       18       74 </v>
   <v type="int" >        2       17       18       74       82 </v>
   <v type="int" >        2        9       17       73       74 </v>
   <v type="int" >        2       17       73       74       81 </v>
   <v type="int" >        2       17       74       81       82 </v>
   <v type="int" >        2       17       18       26       81 </v>
   <v type="int" >        2       17       25       26       81 </v>
   <v type="int" >        2       25       26       81       89 </v>
   <v type="int" >        2       18       26       81       82 </v>
   <v type="int" >        2       26       81       82       90 </v>
   <v type="int" >        2       26       81       89       90 </v>
   <v type="int" >        2       18       19       27       82 </v>
   <v type="int" >        2       18       26       27       82 </v>
   <v type="int" >        2       26       27       82       90 </v>
   <v type="int" >        2       19       27       82       83 </v>
   <v type="int" >        2       27       82       83       91 </v>
   <v type="int" >        2       27       82       90       91 </v>
   <v type="int" >        2       19       20       28       83 </v>
   <v type="int" >        2       19       27       28       83 </v>
   <v type="int" >        2       27       28       83       91 </v>
   <v type="int" >        2       20       28       83       84 </v>
   <v type="int" >        2       28       83       84       92 </v>
   <v type="int" >        2       28       83       91       92 </v>
   <v type="int" >        2       20       21       29       84 </v>
   <v type="int" >        2       20       28       29       84 </v>
   <v type="int" >        2       28       29       84       92 </v>
   <v type="int" >        2       21       29       84       85 </v>
   <v type="int" >        2       29       84       85       93 </v>
   <v type="int" >        2       29       84       92       93 </v>
   <v type="int" >        2       21       22       30       85 </v>
   <v type="int" >        2       21       29       30       85 </v>
   <v type="int" >        2       29       30       85       93 </v>
   <v type="int" >        2       22       30       85       86 </v>
   <v type="int" >        2       30       85       86       94 </v>
   <v type="int" >        2       30       85       93       94 </v>
   <v type="int" >        2       22       23       31       86 </v>
   <v type="int" >        2       22       30       31       86 </v>
   <v type="int" >        2       30       31       86       94 </v>
   <v type="int" >        2       23       31       86       87 </v>
   <v type="int" >        2       31       86       87       95 </v>
   <v type="int" >        2       31       86       94       95 </v>
   <v type="int" >        2       23       24       32       87 </v>
   <v type="int" >        2       23       31       32       87 </v>
   <v type="int" >        2       31       32       87       95 </v>
   <v type="int" >        2       24       32       87       88 </v>
   <v type="int" >        2       32       87       88       96 </v>
   <v type="int" >        2       32       87       95       96 </v>
   <v type="int" >        2       24       24       32       88 </v>
   <v type="int" >        2       24       32       32       88 </v>
   <v type="int" >        2       32       32       88       96 </v>
   <v type="int" >        2       24       32       88       88 </v>
   <v type="int" >        2       32       88       88       96 </v>
   <v type="int" >        2       32       88       96       96 </v>
   <v type="int" >        2       23       24       31       88 </v>
   <v type="int" >        2       24       31       32       88 </v>
   <v type="int" >        2       31       32       88       96 </v>
   <v type="int" >        2       23       31       87       88 </v>
   <v type="int" >        2       31       87       88       95 </v>
   <v type="int" >        2       31       88       95       96 </v>
   <v type="int" >        2       22       23       30       87 </v>
   <v type="int" >        2       23       30       31       87 </v>
   <v type="int" >        2       30       31       87       95 </v>
   <v type="int" >        2       22       30       86       87 </v>
   <v type="int" >        2       30       86       87       94 </v>
   <v type="int" >        2       30       87       94       95 </v>
   <v type="int" >        2       21       22       29       86 </v>
   <v type="int" >        2       22       29       30       86 </v>
   <v type="int" >        2       29       30       86       94 </v>
   <v type="int" >        2       21       29       85       86 </v>
   <v type="int" >        2       29       85       86       93 </v>
   <v type="int" >        2       29       86       93       94 </v>
   <v type="int" >        2       20       21       28       85 </v>
   <v type="int" >        2       21       28       29       85 </v>
   <v type="int" >        2       28       29       85       93 </v>
   <v type="int" >        2       20       28       84       85 </v>
   <v type="int" >        2       28       84       85       92 </v>
   <v type="int" >        2       28       85       92       93 </v>
   <v type="int" >        2       19       20       27       84 </v>
   <v type="int" >        2       20       27       28       84 </v>
   <v type="int" >        2       27       28       84       92 </v>
   <v type="int" >        2       19       27       83       84 </v>
   <v type="int" >        2       27       83       84       91 </v>
   <v type="int" >        2       27       84       91       92 </v>
   <v type="int" >        2       18       19       26       83 </v>
   <v type="int" >        2       19       26       27       83 </v>
   <v type="int" >        2       26       27       83       91 </v>
   <v type="int" >        2       18       26       82       83 </v>
   <v type="int" >        2       26       82       83       90 </v>
   <v type="int" >        2       26       83       90       91 </v>
   <v type="int" >        2       17       18       25       82 </v>
   <v type="int" >        2       18       25       26       82 </v>
   <v type="int" >        2       25       26       82       90 </v>
   <v type="int" >        2       17       25       81       82 </v>
   <v type="int" >        2       25       81       82       89 </v>
   <v type="int" >        2       25       82       89       90 </v>
   <v type="int" >        2       25       26       34       89 </v>
   <v type="int" >        2       25       33       34       89 </v>
   <v type="int" >        2       33       34       89       97 </v>
   <v type="int" >        2       26       34       89       90 </v>
   <v type="int" >        2       34       89       90       98 </v>
   <v type="int" >        2       34       89       97       98 </v>
   <v type="int" >        2       26       27       35       90 </v>
   <v type="int" >        2       26       34       35       90 </v>
   <v type="int" >        2       34       35       90       98 </v>
   <v type="int" >        2       27       35       90       91 </v>
   <v type="int" >        2       35       90       91       99 </v>
   <v type="int" >        2       35       90       98       99 </v>
   <v type="int" >        2       27       28       36       91 </v>
   <v type="int" >        2       27       35       36       91 </v>
   <v type="int" >        2       35       36       91       99 </v>
   <v type="int" >        2       28       36       91       92 </v>
   <v type="int" >        2       36       91       92      100 </v>
   <v type="int" >        2       36       91       99      100 </v>
   <v type="int" >        2       28       29       37       92 </v>
   <v type="int" >        2       28       36       37       92 </v>
   <v type="int" >        2       36       37       92      100 </v>
   <v type="int" >        2       29       37       92       93 </v>
   <v type="int" >        2       37       92       93      101 </v>
   <v type="int" >        2       37       92      100      101 </v>
   <v type="int" >        2       29       30       38       93 </v>
   <v type="int" >        2       29       37       38       93 </v>
   <v type="int" >        2       37       38       93      101 </v>
   <v type="int" >        2       30       38       93       94 </v>
   <v type="int" >        2       38       93       94      102 </v>
   <v type="int" >        2       38       93      101      102 </v>
   <v type="int" >        2       30       31       39       94 </v>
   <v type="int" >        2       30       38       39       94 </v>
   <v type="int" >        2       38       39       94      102 </v>
   <v type="int" >        2       31       39       94       95 </v>
   <v type="int" >        2       39       94       95      103 </v>
   <v type="int" >        2       39       94      102      103 </v>
   <v type="int" >        2       31       32       40       95 </v>
   <v type="int" >        2       31       39       40       95 </v>
   <v type="int" >        2       39       40       95      103 </v>
   <v type="int" >        2       32       40       95       96 </v>
   <v type="int" >        2       40       95       96      104 </v>
   <v type="int" >        2       40       95      103      104 </v>
   <v type="int" >        2       32       32       40       96 </v>
   <v type="int" >        2       32       40       40       96 </v>
   <v type="int" >        2       40       40       96      104 </v>
   <v type="int" >        2       32       40       96       96 </v>
   <v type="int" >        2       40       96       96      104 </v>
   <v type="int" >        2       40       96      104      104 </v>
   <v type="int" >        2       31       32       39       96 </v>
   <v type="int" >        2       32       39       40       96 </v>
   <v type="int" >        2       39       40       96      104 </v>
   <v type="int" >        2       31       39       95       96 </v>
   <v type="int" >        2       39       95       96      103 </v>
   <v type="int" >        2       39       96      103      104 </v>
   <v type="int" >        2       30       31       38       95 </v>
   <v type="int" >        2       31       38       39       95 </v>
   <v type="int" >        2       38       39       95      103 </v>
   <v type="int" >        2       30       38       94       95 </v>
   <v type="int" >        2       38       94       95      102 </v>
   <v type="int" >        2       38       95      102      103 </v>
   <v type="int" >        2       29       30       37       94 </v>
   <v type="int" >        2       30       37       38       94 </v>
   <v type="int" >        2       37       38       94      102 </v>
   <v type="int" >        2       29       37       93       94 </v>
   <v type="int" >        2       37       93       94      101 </v>
   <v type="int" >        2       37       94      101      102 </v>
   <v type="int" >        2       28       29       36       93 </v>
   <v type="int" >        2       29       36       37       93 </v>
   <v type="int" >        2       36       37       93      101 </v>
   <v type="int" >        2       28       36       92       93 </v>
   <v type="int" >        2       36       92       93      100 </v>
   <v type="int" >        2       36       93      100      101 </v>
   <v type="int" >        2       27       28       35       92 </v>
   <v type="int" >        2       28       35       36       92 </v>
   <v type="int" >        2       35       36       92      100 </v>
   <v type="int" >        2       27       35       91       92 </v>
   <v type="int" >        2       35       91       92       99 </v>
   <v type="int" >        2       35       92       99      100 </v>
   <v type="int" >        2       26       27       34       91 </v>
   <v type="int" >        2       27       34       35       91 </v>
   <v type="int" >        2       34       35       91       99 </v>
   <v type="int" >        2       26       34       90       91 </v>
   <v type="int" >        2       34       90       91       98 </v>
   <v type="int" >        2       34       91       98       99 </v>
   <v type="int" >        2       25       26       33       90 </v>
   <v type="int" >        2       26       33       34       90 </v>
   <v type="int" >        2       33       34       90       98 </v>
   <v type="int" >        2       25       33       89       90 </v>
   <v type="int" >        2       33       89       90       97 </v>
   <v type="int" >        2       33       90       97       98 </v>
   <v type="int" >        2       33       34       42       97 </v>
   <v type="int" >        2       33       41       42       97 </v>
   <v type="int" >        2       41       42       97      105 </v>
   <v type="int" >        2       34       42       97       98 </v>
   <v type="int" >        2       42       97       98      106 </v>
   <v type="int" >        2       42       97      105      106 </v>
   <v type="int" >        2       34       35       43       98 </v>
   <v type="int" >        2       34       42       43       98 </v>
   <v type="int" >        2       42       43       98      106 </v>
   <v type="int" >        2       35       43       98       99 </v>
   <v type="int" >        2       43       98       99      107 </v>
   <v type="int" >        2       43       98      106      107 </v>
   <v type="int" >        2       35       36       44       99 </v>
   <v type="int" >        2       35       43       44       99 </v>
   <v type="int" >        2       43       44       99      107 </v>
   <v type="int" >        2       36       44       99      100 </v>
   <v type="int" >        2       44       99      100      108 </v>
   <v type="int" >        2       44       99      107      108 </v>
   <v type="int" >        2       36       37       45      100 </v>
   <v type="int" >        2       36       44       45      100 </v>
   <v type="int" >        2       44       45      100      108 </v>
   <v type="int" >        2       37       45      100      101 </v>
   <v type="int" >        2       45      100      101      109 </v>
   <v type="int" >        2       45      100      108      109 </v>
   <v type="int" >        2       37       38       46      101 </v>
   <v type="int" >        2       37       45       46      101 </v>
   <v type="int" >        2       45       46      101      109 </v>
   <v type="int" >        2       38       46      101      102 </v>
   <v type="int" >        2       46      101      102      110 </v>
   <v type="int" >        2       46      101      109      110 </v>
   <v type="int" >        2       38       39       47      102 </v>
   <v type="int" >        2       38       46       47      102 </v>
   <v type="int" >        2       46       47      102      110 </v>
   <v type="int" >        2       39       47      102      103 </v>
   <v type="int" >        2       47      102      103      111 </v>
   <v type="int" >        2       47      102      110      111 </v>
   <v type="int" >        2       39       40       48      103 </v>
   <v type="int" >        2       39       47       48      103 </v>
   <v type="int" >        2       47       48      103      111 </v>
   <v type="int" >        2       40       48      103      104 </v>
   <v type="int" >        2       48      103      104      112 </v>
   <v type="int" >        2       48      103      111      112 </v>
   <v type="int" >        2       40       40       48      104 </v>
   <v type="int" >        2       40       48       48      104 </v>
   <v type="int" >        2       48       48      104      112 </v>
   <v type="int" >        2       40       48      104      104 </v>
   <v type="int" >        2       48      104      104      112 </v>
   <v type="int" >        2       48      104      112      112 </v>
   <v type="int" >        2       39       40       47      104 </v>
   <v type="int" >        2       40       47       48      104 </v>
   <v type="int" >        2       47       48      104      112 </v>
   <v type="int" >        2       39       47      103      104 </v>
   <v type="int" >        2       47      103      104      111 </v>
   <v type="int" >        2       47      104      111      112 </v>
   <v type="int" >        2       38       39       46      103 </v>
   <v type="int" >        2       39       46       47      103 </v>
   <v type="int" >        2       46       47      103      111 </v>
   <v type="int" >        2       38       46      102      103 </v>
   <v type="int" >        2       46      102      103      110 </v>
   <v type="int" >        2       46      103      110      111 </v>
   <v type="int" >        2       37       38       45      102 </v>
   <v type="int" >        2       38       45       46      102 </v>
   <v type="int" >        2       45       46      102      110 </v>
   <v type="int" >        2       37       45      101      102 </v>
   <v type="int" >        2       45      101      102      109 </v>
   <v type="int" >        2       45      102      109      110 </v>
   <v type="int" >        2       36       37       44      101 </v>
   <v type="int" >        2       37       44       45      101 </v>
   <v type="int" >        2       44       45      101      109 </v>
   <v type="int" >        2       36       44      100      101 </v>
   <v type="int" >        2       44      100      101      108 </v>
   <v type="int" >        2       44      101      108      109 </v>
   <v type="int" >        2       35       36       43      100 </v>
   <v type="int" >        2       36       43       44      100 </v>
   <v type="int" >        2       43       44      100      108 </v>
   <v type="int" >        2       35       43       99      100 </v>
   <v type="int" >        2       43       99      100      107 </v>
   <v type="int" >        2       43      100      107      108 </v>
   <v type="int" >        2       34       35       42       99 </v>
   <v type="int" >        2       35       42       43       99 </v>
   <v type="int" >        2       42       43       99      107 </v>
   <v type="int" >        2       34       42       98       99 </v>
   <v type="int" >        2       42       98       99      106 </v>
   <v type="int" >        2       42       99      106      107 </v>
   <v type="int" >        2       33       34       41       98 </v>
   <v type="int" >        2       34       41       42       98 </v>
   <v type="int" >        2       41       42       98      106 </v>
   <v type="int" >        2       33       41       97       98 </v>
   <v type="int" >        2       41       97       98      105 </v>
   <v type="int" >        2       41       98      105      106 </v>
   <v type="int" >        2       41       42       50      105 </v>
   <v type="int" >        2       41       49       50      105 </v>
   <v type="int" >        2       49       50      105      113 </v>
   <v type="int" >        2       42       50      105      106 </v>
   <v type="int" >        2       50      105      106      114 </v>
   <v type="int" >        2       50      105      113      114 </v>
   <v type="int" >        2       42       43       51      106 </v>
   <v type="int" >        2       42       50       51      106 </v>
   <v type="int" >        2       50       51      106      114 </v>
   <v type="int" >        2       43       51      106      107 </v>
   <v type="int" >        2       51      106      107      115 </v>
   <v type="int" >        2       51      106      114      115 </v>
   <v type="int" >        2       43       44       52      107 </v>
   <v type="int" >        2       43       51       52      107 </v>
   <v type="int" >        2       51       52      107      115 </v>
   <v type="int" >        2       44       52      107      108 </v>
   <v type="int" >        2       52      107      108      116 </v>
   <v type="int" >        2       52      107      115      116 </v>
   <v type="int" >        2       44       45       53      108 </v>
   <v type="int" >        2       44       52       53      108 </v>
   <v type="int" >        2       52       53      108      116 </v>
   <v type="int" >        2       45       53      108      109 </v>
   <v type="int" >        2       53      108      109      117 </v>
   <v type="int" >        2       53      108      116      117 </v>
   <v type="int" >        2       45       46       54      109 </v>
   <v type="int" >        2       45       53       54      109 </v>
   <v type="int" >        2       53       54      109      117 </v>
   <v type="int" >        2       46       54      109      110 </v>
   <v type="int" >        2       54      109      110      118 </v>
   <v type="int" >        2       54      109      117      118 </v>
   <v type="int" >        2       46       47       55      110 </v>
   <v type="int" >        2       46       54       55      110 </v>
   <v type="int" >        2       54       55      110      118 </v>
   <v type="int" >        2       47       55      110      111 </v>
   <v type="int" >        2       55      110      111      119 </v>
   <v type="int" >        2       55      110      118      119 </v>
   <v type="int" >        2       47       48       56      111 </v>
   <v type="int" >        2       47       55       56      111 </v>
   <v type="int" >        2       55       56      111      119 </v>
   <v type="int" >        2       48       56      111      112 </v>
   <v type="int" >        2       56      111      112      120 </v>
   <v type="int" >        2       56      111      119      120 </v>
   <v type="int" >        2       48       48       56      112 </v>
   <v type="int" >        2       48       56       56      112 </v>
   <v type="int" >        2       56       56      112      120 </v>
   <v type="int" >        2       48       56      112      112 </v>
   <v type="int" >        2       56      112      112      120 </v>
   <v type="int" >        2       56      112      120      120 </v>
   <v type="int" >        2       47       48       55      112 </v>
   <v type="int" >        2       48       55       56      112 </v>
   <v type="int" >        2       55       56      112      120 </v>
   <v type="int" >        2       47       55      111      112 </v>
   <v type="int" >        2       55      111      112      119 </v>
   <v type="int" >        2       55      112      119      120 </v>
   <v type="int" >        2       46       47       54      111 </v>
   <v type="int" >        2       47       54       55      111 </v>
   <v type="int" >        2       54       55      111      119 </v>
   <v type="int" >        2       46       54      110      111 </v>
   <v type="int" >        2       54      110      111      118 </v>
   <v type="int" >        2       54      111      118      119 </v>
   <v type="int" >        2       45       46       53      110 </v>
   <v type="int" >        2       46       53       54      110 </v>
   <v type="int" >        2       53       54      110      118 </v>
   <v type="int" >        2       45       53      109      110 </v>
   <v type="int" >        2       53      109      110      117 </v>
   <v type="int" >        2       53      110      117      118 </v>
   <v type="int" >        2       44       45       52      109 </v>
   <v type="int" >        2       45       52       53      109 </v>
   <v type="int" >        2       52       53      109      117 </v>
   <v type="int" >        2       44       52      108      109 </v>
   <v type="int" >        2       52      108      109      116 </v>
   <v type="int" >        2       52      109      116      117 </v>
   <v type="int" >        2       43       44       51      108 </v>
   <v type="int" >        2       44       51       52      108 </v>
   <v type="int" >        2       51       52      108      116 </v>
   <v type="int" >        2       43       51      107      108 </v>
   <v type="int" >        2       51      107      108      115 </v>
   <v type="int" >        2       51      108      115      116 </v>
   <v type="int" >        2       42       43       50      107 </v>
   <v type="int" >        2       43       50       51      107 </v>
   <v type="int" >        2       50       51      107      115 </v>
   <v type="int" >        2       42       50      106      107 </v>
   <v type="int" >        2       50      106      107      114 </v>
   <v type="int" >        2       50      107      114      115 </v>
   <v type="int" >        2       41       42       49      106 </v>
   <v type="int" >        2       42       49       50      106 </v>
   <v type="int" >        2       49       50      106      114 </v>
   <v type="int" >        2       41       49      105      106 </v>
   <v type="int" >        2       49      105      106      113 </v>
   <v type="int" >        2       49      106      113      114 </v>
   <v type="int" >        2       49       50       58      113 </v>
   <v type="int" >        2       49       57       58      113 </v>
   <v type="int" >        2       57       58      113      121 </v>
   <v type="int" >        2       50       58      113      114 </v>
   <v type="int" >        2       58      113      114      122 </v>
   <v type="int" >        2       58      113      121      122 </v>
   <v type="int" >        2       50       51       59      114 </v>
   <v type="int" >        2       50       58       59      114 </v>
   <v type="int" >        2       58       59      114      122 </v>
   <v type="int" >        2       51       59      114      115 </v>
   <v type="int" >        2       59      114      115      123 </v>
   <v type="int" >        2       59      114      122      123 </v>
   <v type="int" >        2       51       52       60      115 </v>
   <v type="int" >        2       51       59       60      115 </v>
   <v type="int" >        2       59       60      115      123 </v>
   <v type="int" >        2       52       60      115      116 </v>
   <v type="int" >        2       60      115      116      124 </v>
   <v type="int" >        2       60      115      123      124 </v>
   <v type="int" >        2       52       53       61      116 </v>
   <v type="int" >        2       52       60       61      116 </v>
   <v type="int" >        2       60       61      116      124 </v>
   <v type="int" >        2       53       61      116      117 </v>
   <v type="int" >        2       61      116      117      125 </v>
   <v type="int" >        2       61      116      124      125 </v>
   <v type="int" >        2       53       54       62      117 </v>
   <v type="int" >        2       53       61       62      117 </v>
   <v type="int" >        2       61       62      117      125 </v>
   <v type="int" >        2       54       62      117      118 </v>
   <v type="int" >        2       62      117      118      126 </v>
   <v type="int" >        2       62      117      125      126 </v>
   <v type="int" >        2       54       55       63      118 </v>
   <v type="int" >        2       54       62       63      118 </v>
   <v type="int" >        2       62       63      118      126 </v>
   <v type="int" >        2       55       63      118      119 </v>
   <v type="int" >        2       63      118      119      127 </v>
   <v type="int" >        2       63      118      126      127 </v>
   <v type="int" >        2       55       56       64      119 </v>
   <v type="int" >        2       55       63       64      119 </v>
   <v type="int" >        2       63       64      119      127 </v>
   <v type="int" >        2       56       64      119      120 </v>
   <v type="int" >        2       64      119      120      128 </v>
   <v type="int" >        2       64      119      127      128 </v>
   <v type="int" >        2       56       56       64      120 </v>
   <v type="int" >        2       56       64       64      120 </v>
   <v type="int" >        2       64       64      120      128 </v>
   <v type="int" >        2       56       64      120      120 </v>
   <v type="int" >        2       64      120      120      128 </v>
   <v type="int" >        2       64      120      128      128 </v>
   <v type="int" >        2       55       56       63      120 </v>
   <v type="int" >        2       56       63       64      120 </v>
   <v type="int" >        2       63       64      120      128 </v>
   <v type="int" >        2       55       63      119      120 </v>
   <v type="int" >        2       63      119      120      127 </v>
   <v type="int" >        2       63      120      127      128 </v>
   <v type="int" >        2       54       55       62      119 </v>
   <v type="int" >        2       55       62       63      119 </v>
   <v type="int" >        2       62       63      119      127 </v>
   <v type="int" >        2       54       62      118      119 </v>
   <v type="int" >        2       62      118      119      126 </v>
   <v type="int" >        2       62      119      126      127 </v>
   <v type="int" >        2       53       54       61      118 </v>
   <v type="int" >        2       54       61       62      118 </v>
   <v type="int" >        2       61       62      118      126 </v>
   <v type="int" >        2       53       61      117      118 </v>
   <v type="int" >        2       61      117      118      125 </v>
   <v type="int" >        2       61      118      125      126 </v>
   <v type="int" >        2       52       53       60      117 </v>
   <v type="int" >        2       53       60       61      117 </v>
   <v type="int" >        2       60       61      117      125 </v>
   <v type="int" >        2       52       60      116      117 </v>
   <v type="int" >        2       60      116      117      124 </v>
   <v type="int" >        2       60      117      124      125 </v>
   <v type="int" >        2       51       52       59      116 </v>
   <v type="int" >        2       52       59       60      116 </v>
   <v type="int" >        2       59       60      116      124 </v>
   <v type="int" >        2       51       59      115      116 </v>
   <v type="int" >        2       59      115      116      123 </v>
   <v type="int" >        2       59      116      123      124 </v>
   <v type="int" >        2       50       51       58      115 </v>
   <v type="int" >        2       51       58       59      115 </v>
   <v type="int" >        2       58       59      115      123 </v>
   <v type="int" >        2       50       58      114      115 </v>
   <v type="int" >        2       58      114      115      122 </v>
   <v type="int" >        2       58      115      122      123 </v>
   <v type="int" >        2       49       50       57      114 </v>
   <v type="int" >        2       50       57       58      114 </v>
   <v type="int" >        2       57       58      114      122 </v>
   <v type="int" >        2       49       57      113      114 </v>
   <v type="int" >        2       57      113      114      121 </v>
   <v type="int" >        2       57      114      121      122 </v>
   <v type="int" >        2       57       58       58      121 </v>
   <v type="int" >        2       57       57       58      121 </v>
   <v type="int" >        2       57       58      121      121 </v>
   <v type="int" >        2       58       58      121      122 </v>
   <v type="int" >        2       58      121      122      122 </v>
   <v type="int" >        2       58      121      121      122 </v>
   <v type="int" >        2       58       59       59      122 </v>
   <v type="int" >        2       58       58       59      122 </v>
   <v type="int" >        2       58       59      122      122 </v>
   <v type="int" >        2       59       59      122      123 </v>
   <v type="int" >        2       59      122      123      123 </v>
   <v type="int" >        2       59      122      122      123 </v>
   <v type="int" >        2       59       60       60      123 </v>
   <v type="int" >        2       59       59       60      123 </v>
   <v type="int" >        2       59       60      123      123 </v>
   <v type="int" >        2       60       60      123      124 </v>
   <v type="int" >        2       60      123      124      124 </v>
   <v type="int" >        2       60      123      123      124 </v>
   <v type="int" >        2       60       61       61      124 </v>
   <v type="int" >        2       60       60       61      124 </v>
   <v type="int" >        2       60       61      124      124 </v>
   <v type="int" >        2       61       61      124      125 </v>
   <v type="int" >        2       61      124      125      125 </v>
   <v type="int" >        2       61      124      124      125 </v>
   <v type="int" >        2       61       62       62      125 </v>
   <v type="int" >        2       61       61       62      125 </v>
   <v type="int" >        2       61       62      125      125 </v>
   <v type="int" >        2       62       62      125      126 </v>
   <v type="int" >        2       62      125      126      126 </v>
   <v type="int" >        2       62      125      125      126 </v>
   <v type="int" >        2       62       63       63      126 </v>
   <v type="int" >        2       62       62       63      126 </v>
   <v type="int" >        2       62       63      126      126 </v>
   <v type="int" >        2       63       63      126      127 </v>
   <v type="int" >        2       63      126      127      127 </v>
   <v type="int" >        2       63      126      126      127 </v>
   <v type="int" >        2       63       64       64      127 </v>
   <v type="int" >        2       63       63       64      127 </v>
   <v type="int" >        2       63       64      127      127 </v>
   <v type="int" >        2       64       64      127      128 </v>
   <v type="int" >        2       64      127      128      128 </v>
   <v type="int" >        2       64      127      127      128 </v>
   <v type="int" >        4       64       64       64      128 </v>
   <v type="int" >        4       64       64      128      128 </v>
   <v type="int" >        4       64      128      128      128 </v>
   <v type="int" >        2       63       63       64      128 </v>
   <v type="int" >        2       63       64       64      128 </v>
   <v type="int" >        2       63       64      128      128 </v>
   <v type="int" >        2       63       63      127      128 </v>
   <v type="int" >        2       63      127      127      128 </v>
   <v type="int" >        2       63      127      128      128 </v>
   <v type="int" >        2       62       62       63      127 </v>
   <v type="int" >        2       62       63       63      127 </v>
   <v type="int" >        2       62       63      127      127 </v>
   <v type="int" >        2       62       62      126      127 </v>
   <v type="int" >        2       62      126      126      127 </v>
   <v type="int" >        2       62      126      127      127 </v>
   <v type="int" >        2       61       61       62      126 </v>
   <v type="int" >        2       61       62       62      126 </v>
   <v type="int" >        2       61       62      126      126 </v>
   <v type="int" >        2       61       61      125      126 </v>
   <v type="int" >        2       61      125      125      126 </v>
   <v type="int" >        2       61      125      126      126 </v>
   <v type="int" >        2       60       60       61      125 </v>
   <v type="int" >        2       60       61       61      125 </v>
   <v type="int" >        2       60       61      125      125 </v>
   <v type="int" >        2       60       60      124      125 </v>
   <v type="int" >        2       60      124      124      125 </v>
   <v type="int" >        2       60      124      125      125 </v>
   <v type="int" >        2       59       59       60      124 </v>
   <v type="int" >        2       59       60       60      124 </v>
   <v type="int" >        2       59       60      124      124 </v>
   <v type="int" >        2       59       59      123      124 </v>
   <v type="int" >        2       59      123      123      124 </v>
   <v type="int" >        2       59      123      124      124 </v>
   <v type="int" >        2       58       58       59      123 </v>
   <v type="int" >        2       58       59       59      123 </v>
   <v type="int" >        2       58       59      123      123 </v>
   <v type="int" >        2       58       58      122      123 </v>
   <v type="int" >        2       58      122      122      123 </v>
   <v type="int" >        2       58      122      123      123 </v>
   <v type="int" >        2       57       57       58      122 </v>
   <v type="int" >        2       57       58       58      122 </v>
   <v type="int" >        2       57       58      122      122 </v>
   <v type="int" >        2       57       57      121      122 </v>
   <v type="int" >        2       57      121      121      122 </v>
   <v type="int" >        2       57      121      122      122 </v>
   <v type="int" >        2       50       57       58      121 </v>
   <v type="int" >        2       49       50       57      121 </v>
   <v type="int" >        2       49       50      113      121 </v>
   <v type="int" >        2       50       58      121      122 </v>
   <v type="int" >        2       50      114      121      122 </v>
   <v type="int" >        2       50      113      114      121 </v>
   <v type="int" >        2       51       58       59      122 </v>
   <v type="int" >        2       50       51       58      122 </v>
   <v type="int" >        2       50       51      114      122 </v>
   <v type="int" >        2       51       59      122      123 </v>
   <v type="int" >        2       51      115      122      123 </v>
   <v type="int" >        2       51      114      115      122 </v>
   <v type="int" >        2       52       59       60      123 </v>
   <v type="int" >        2       51       52       59      123 </v>
   <v type="int" >        2       51       52      115      123 </v>
   <v type="int" >        2       52       60      123      124 </v>
   <v type="int" >        2       52      116      123      124 </v>
   <v type="int" >        2       52      115      116      123 </v>
   <v type="int" >        2       53       60       61      124 </v>
   <v type="int" >        2       52       53       60      124 </v>
   <v type="int" >        2       52       53      116      124 </v>
   <v type="int" >        2       53       61      124      125 </v>
   <v type="int" >        2       53      117      124      125 </v>
   <v type="int" >        2       53      116      117      124 </v>
   <v type="int" >        2       54       61       62      125 </v>
   <v type="int" >        2       53       54       61      125 </v>
   <v type="int" >        2       53       54      117      125 </v>
   <v type="int" >        2       54       62      125      126 </v>
   <v type="int" >        2       54      118      125      126 </v>
   <v type="int" >        2       54      117      118      125 </v>
   <v type="int" >        2       55       62       63      126 </v>
   <v type="int" >        2       54       55       62      126 </v>
   <v type="int" >        2       54       55      118      126 </v>
   <v type="int" >        2       55       63      126      127 </v>
   <v type="int" >        2       55      119      126      127 </v>
   <v type="int" >        2       55      118      119      126 </v>
   <v type="int" >        2       56       63       64      127 </v>
   <v type="int" >        2       55       56       63      127 </v>
   <v type="int" >        2       55       56      119      127 </v>
   <v type="int" >        2       56       64      127      128 </v>
   <v type="int" >        2       56      120      127      128 </v>
   <v type="int" >        2       56      119      120      127 </v>
   <v type="int" >        2       56       64       64      128 </v>
   <v type="int" >        2       56       56       64      128 </v>
   <v type="int" >        2       56       56      120      128 </v>
   <v type="int" >        2       56       64      128      128 </v>
   <v type="int" >        2       56      120      128      128 </v>
   <v type="int" >        2       56      120      120      128 </v>
   <v type="int" >        2       55       63       64      128 </v>
   <v type="int" >        2       55       56       64      128 </v>
   <v type="int" >        2       55       56      120      128 </v>
   <v type="int" >        2       55       63      127      128 </v>
   <v type="int" >        2       55      119      127      128 </v>
   <v type="int" >        2       55      119      120      128 </v>
   <v type="int" >        2       54       62       63      127 </v>
   <v type="int" >        2       54       55       63      127 </v>
   <v type="int" >        2       54       55      119      127 </v>
   <v type="int" >        2       54       62      126      127 </v>
   <v type="int" >        2       54      118      126      127 </v>
   <v type="int" >        2       54      118      119      127 </v>
   <v type="int" >        2       53       61       62      126 </v>
   <v type="int" >        2       53       54       62      126 </v>
   <v type="int" >        2       53       54      118      126 </v>
   <v type="int" >        2       53       61      125      126 </v>
   <v type="int" >        2       53      117      125      126 </v>
   <v type="int" >        2       53      117      118      126 </v>
   <v type="int" >        2       52       60       61      125 </v>
   <v type="int" >        2       52       53       61      125 </v>
   <v type="int" >        2       52       53      117      125 </v>
   <v type="int" >        2       52       60      124      125 </v>
   <v type="int" >        2       52      116      124      125 </v>
   <v type="int" >        2       52      116      117      125 </v>
   <v type="int" >        2       51       59       60      124 </v>
   <v type="int" >        2       51       52       60      124 </v>
   <v type="int" >        2       51       52      116      124 </v>
   <v type="int" >        2       51       59      123      124 </v>
   <v type="int" >        2       51      115      123      124 </v>
   <v type="int" >        2       51      115      116      124 </v>
   <v type="int" >        2       50       58       59      123 </v>
   <v type="int" >        2       50       51       59      123 </v>
   <v type="int" >        2       50       51      115      123 </v>
   <v type="int" >        2       50       58      122      123 </v>
   <v type="int" >        2       50      114      122      123 </v>
   <v type="int" >        2       50      114      115      123 </v>
   <v type="int" >        2       49       57       58      122 </v>
   <v type="int" >        2       49       50       58      122 </v>
   <v type="int" >        2       49       50      114      122 </v>
   <v type="int" >        2       49       57      121      122 </v>
   <v type="int" >        2       49      113      121      122 </v>
   <v type="int" >        2       49      113      114      122 </v>
   <v type="int" >        2       42       49       50      113 </v>
   <v type="int" >        2       41       42       49      113 </v>
   <v type="int" >        2       41       42      105      113 </v>
   <v type="int" >        2       42       50      113      114 </v>
   <v type="int" >        2       42      106      113      114 </v>
   <v type="int" >        2       42      105      106      113 </v>
   <v type="int" >        2       43       50       51      114 </v>
   <v type="int" >        2       42       43       50      114 </v>
   <v type="int" >        2       42       43      106      114 </v>
   <v type="int" >        2       43       51      114      115 </v>
   <v type="int" >        2       43      107      114      115 </v>
   <v type="int" >        2       43      106      107      114 </v>
   <v type="int" >        2       44       51       52      115 </v>
   <v type="int" >        2       43       44       51      115 </v>
   <v type="int" >        2       43       44      107      115 </v>
   <v type="int" >        2       44       52      115      116 </v>
   <v type="int" >        2       44      108      115      116 </v>
   <v type="int" >        2       44      107      108      115 </v>
   <v type="int" >        2       45       52       53      116 </v>
   <v type="int" >        2       44       45       52      116 </v>
   <v type="int" >        2       44       45      108      116 </v>
   <v type="int" >        2       45       53      116      117 </v>
   <v type="int" >        2       45      109      116      117 </v>
   <v type="int" >        2       45      108      109      116 </v>
   <v type="int" >        2       46       53       54      117 </v>
   <v type="int" >        2       45       46       53      117 </v>
   <v type="int" >        2       45       46      109      117 </v>
   <v type="int" >        2       46       54      117      118 </v>
   <v type="int" >        2       46      110      117      118 </v>
   <v type="int" >        2       46      109      110      117 </v>
   <v type="int" >        2       47       54       55      118 </v>
   <v type="int" >        2       46       47       54      118 </v>
   <v type="int" >        2       46       47      110      118 </v>
   <v type="int" >        2       47       55      118      119 </v>
   <v type="int" >        2       47      111      118      119 </v>
   <v type="int" >        2       47      110      111      118 </v>
   <v type="int" >        2       48       55       56      119 </v>
   <v type="int" >        2       47       48       55      119 </v>
   <v type="int" >        2       47       48      111      119 </v>
   <v type="int" >        2       48       56      119      120 </v>
   <v type="int" >        2       48      112      119      120 </v>
   <v type="int" >        2       48      111      112      119 </v>
   <v type="int" >        2       48       56       56      120 </v>
   <v type="int" >        2       48       48       56      120 </v>
   <v type="int" >        2       48       48      112      120 </v>
   <v type="int" >        2       48       56      120      120 </v>
   <v type="int" >        2       48      112      120      120 </v>
   <v type="int" >        2       48      112      112      120 </v>
   <v type="int" >        2       47       55       56      120 </v>
   <v type="int" >        2       47       48       56      120 </v>
   <v type="int" >        2       47       48      112      120 </v>
   <v type="int" >        2       47       55      119      120 </v>
   <v type="int" >        2       47      111      119      120 </v>
   <v type="int" >        2       47      111      112      120 </v>
   <v type="int" >        2       46       54       55      119 </v>
   <v type="int" >        2       46       47       55      119 </v>
   <v type="int" >        2       46       47      111      119 </v>
   <v type="int" >        2       46       54      118      119 </v>
   <v type="int" >        2       46      110      118      119 </v>
   <v type="int" >        2       46      110      111      119 </v>
   <v type="int" >        2       45       53       54      118 </v>
   <v type="int" >        2       45       46       54      118 </v>
   <v type="int" >        2       45       46      110      118 </v>
   <v type="int" >        2       45       53      117      118 </v>
   <v type="int" >        2       45      109      117      118 </v>
   <v type="int" >        2       45      109      110      118 </v>
   <v type="int" >        2       44       52       53      117 </v>
   <v type="int" >        2       44       45       53      117 </v>
   <v type="int" >        2       44       45      109      117 </v>
   <v type="int" >        2       44       52      116      117 </v>
   <v type="int" >        2       44      108      116      117 </v>
   <v type="int" >        2       44      108      109      117 </v>
   <v type="int" >        2       43       51       52      116 </v>
   <v type="int" >        2       43       44       52      116 </v>
   <v type="int" >        2       43       44      108      116 </v>
   <v type="int" >        2       43       51      115      116 </v>
   <v type="int" >        2       43      107      115      116 </v>
   <v type="int" >        2       43      107      108      116 </v>
   <v type="int" >        2       42       50       51      115 </v>
   <v type="int" >        2       42       43       51      115 </v>
   <v type="int" >        2       42       43      107      115 </v>
   <v type="int" >        2       42       50      114      115 </v>
   <v type="int" >        2       42      106      114      115 </v>
   <v type="int" >        2       42      106      107      115 </v>
   <v type="int" >        2       41       49       50      114 </v>
   <v type="int" >        2       41       42       50      114 </v>
   <v type="int" >        2       41       42      106      114 </v>
   <v type="int" >        2       41       49      113      114 </v>
   <v type="int" >        2       41      105      113      114 </v>
   <v type="int" >        2       41      105      106      114 </v>
   <v type="int" >        2       34       41       42      105 </v>
   <v type="int" >        2       33       34       41      105 </v>
   <v type="int" >        2       33       34       97      105 </v>
   <v type="int" >        2       34       42      105      106 </v>
   <v type="int" >        2       34       98      105      106 </v>
   <v type="int" >        2       34       97       98      105 </v>
   <v type="int" >        2       35       42       43      106 </v>
   <v type="int" >        2       34       35       42      106 </v>
   <v type="int" >        2       34       35       98      106 </v>
   <v type="int" >        2       35       43      106      107 </v>
   <v type="int" >        2       35       99      106      107 </v>
   <v type="int" >        2       35       98       99      106 </v>
   <v type="int" >        2       36       43       44      107 </v>
   <v type="int" >        2       35       36       43      107 </v>
   <v type="int" >        2       35       36       99      107 </v>
   <v type="int" >        2       36       44      107      108 </v>
   <v type="int" >        2       36      100      107      108 </v>
   <v type="int" >        2       36       99      100      107 </v>
   <v type="int" >        2       37       44       45      108 </v>
   <v type="int" >        2       36       37       44      108 </v>
   <v type="int" >        2       36       37      100      108 </v>
   <v type="int" >        2       37       45      108      109 </v>
   <v type="int" >        2       37      101      108      109 </v>
   <v type="int" >        2       37      100      101      108 </v>
   <v type="int" >        2       38       45       46      109 </v>
   <v type="int" >        2       37       38       45      109 </v>
   <v type="int" >        2       37       38      101      109 </v>
   <v type="int" >        2       38       46      109      110 </v>
   <v type="int" >        2       38      102      109      110 </v>
   <v type="int" >        2       38      101      102      109 </v>
   <v type="int" >        2       39       46       47      110 </v>
   <v type="int" >        2       38       39       46      110 </v>
   <v type="int" >        2       38       39      102      110 </v>
   <v type="int" >        2       39       47      110      111 </v>
   <v type="int" >        2       39      103      110      111 </v>
   <v type="int" >        2       39      102      103      110 </v>
   <v type="int" >        2       40       47       48      111 </v>
   <v type="int" >        2       39       40       47      111 </v>
   <v type="int" >        2       39       40      103      111 </v>
   <v type="int" >        2       40       48      111      112 </v>
   <v type="int" >        2       40      104      111      112 </v>
   <v type="int" >        2       40      103      104      111 </v>
   <v type="int" >        2       40       48       48      112 </v>
   <v type="int" >        2       40       40       48      112 </v>
   <v type="int" >        2       40       40      104      112 </v>
   <v type="int" >        2       40       48      112      112 </v>
   <v type="int" >        2       40      104      112      112 </v>
   <v type="int" >        2       40      104      104      112 </v>
   <v type="int" >        2       39       47       48      112 </v>
   <v type="int" >        2       39       40       48      112 </v>
   <v type="int" >        2       39       40      104      112 </v>
   <v type="int" >        2       39       47      111      112 </v>
   <v type="int" >        2       39      103      111      112 </v>
   <v type="int" >        2       39      103      104      112 </v>
   <v type="int" >        2       38       46       47      111 </v>
   <v type="int" >        2       38       39       47      111 </v>
   <v type="int" >        2       38       39      103      111 </v>
   <v type="int" >        2       38       46      110      111 </v>
   <v type="int" >        2       38      102      110      111 </v>
   <v type="int" >        2       38      102      103      111 </v>
   <v type="int" >        2       37       45       46      110 </v>
   <v type="int" >        2       37       38       46      110 </v>
[...]
       <r>    8.1813    0.0000 </r>
       <r>    8.3597    0.0000 </r>
       <r>    8.3668    0.0000 </r>
       <r>    8.7771    0.0000 </r>
       <r>    8.7774    0.0000 </r>
       <r>    8.9638    0.0000 </r>
       <r>    8.9681    0.0000 </r>
       <r>    9.0271    0.0000 </r>
       <r>    9.0315    0.0000 </r>
       <r>    9.1246    0.0000 </r>
       <r>    9.1255    0.0000 </r>
       <r>    9.6250    0.0000 </r>
       <r>    9.6263    0.0000 </r>
       <r>    9.7394    0.0000 </r>
       <r>    9.7403    0.0000 </r>
       <r>   10.9428    0.0000 </r>
       <r>   10.9456    0.0000 </r>
       <r>   10.9708    0.0000 </r>
       <r>   10.9777    0.0000 </r>
       <r>   11.3588    0.0000 </r>
       <r>   11.3792    0.0000 </r>
       <r>   11.5295    0.0000 </r>
       <r>   11.5825    0.0000 </r>
       <r>   11.6596    0.0000 </r>
       <r>   11.7128    0.0000 </r>
       <r>   11.7971    0.0000 </r>
       <r>   11.8043    0.0000 </r>
       <r>   12.1874    0.0000 </r>
       <r>   12.1887    0.0000 </r>
       <r>   12.2016    0.0000 </r>
       <r>   12.2103    0.0000 </r>
       <r>   12.4776    0.0000 </r>
       <r>   12.4918    0.0000 </r>
       <r>   12.5485    0.0000 </r>
       <r>   12.5536    0.0000 </r>
      </set>
     </set>
    </set>
   </array>
  </eigenvalues>
  <separator name="orbital magnetization" >
   <v name="MAGDIPOLOUT">      0.00000000      0.00000000      0.00000000</v>
  </separator>
  <dos>
   <i name="efermi">      5.65601799 </i>
   <total>
    <array>
     <dimension dim="1">gridpoints</dimension>
     <dimension dim="2">spin</dimension>
     <field>energy</field>
     <field>total</field>
     <field>integrated</field>
     <set>
      <set comment="spin 1">
       <r>   -29.7535     0.0000     0.0000 </r>
       <r>   -29.6049     0.0000     0.0000 </r>
       <r>   -29.4564     0.0000     0.0000 </r>
       <r>   -29.3078     0.0000     0.0000 </r>
       <r>   -29.1593     0.0000     0.0000 </r>
       <r>   -29.0108     0.0000     0.0000 </r>
       <r>   -28.8622     0.0000     0.0000 </r>
       <r>   -28.7137     0.0000     0.0000 </r>
       <r>   -28.5652     0.0000     0.0000 </r>
       <r>   -28.4166     0.0000     0.0000 </r>
       <r>   -28.2681     0.0000     0.0000 </r>
       <r>   -28.1196     0.0000     0.0000 </r>
       <r>   -27.9710     0.0000     0.0000 </r>
       <r>   -27.8225     0.0000     0.0000 </r>
       <r>   -27.6740   149.1472     4.3433 </r>
       <r>   -27.5254     0.0000    16.0000 </r>
       <r>   -27.3769     0.0000    16.0000 </r>
       <r>   -27.2283     0.0000    16.0000 </r>
       <r>   -27.0798     0.0000    16.0000 </r>
       <r>   -26.9313     0.0000    16.0000 </r>
       <r>   -26.7827     0.0000    16.0000 </r>
       <r>   -26.6342     0.0000    16.0000 </r>
       <r>   -26.4857     0.0000    16.0000 </r>
       <r>   -26.3371     0.0000    16.0000 </r>
       <r>   -26.1886     0.0000    16.0000 </r>
       <r>   -26.0401     0.0000    16.0000 </r>
       <r>   -25.8915     0.0000    16.0000 </r>
       <r>   -25.7430     0.0000    16.0000 </r>
       <r>   -25.5944     0.0000    16.0000 </r>
       <r>   -25.4459     0.0000    16.0000 </r>
       <r>   -25.2974     0.0000    16.0000 </r>
       <r>   -25.1488     0.0000    16.0000 </r>
       <r>   -25.0003     0.0000    16.0000 </r>
       <r>   -24.8518     0.0000    16.0000 </r>
       <r>   -24.7032     0.0000    16.0000 </r>
       <r>   -24.5547     0.0000    16.0000 </r>
       <r>   -24.4062     0.0000    16.0000 </r>
       <r>   -24.2576     0.0000    16.0000 </r>
       <r>   -24.1091     0.0000    16.0000 </r>
       <r>   -23.9606     0.0000    16.0000 </r>
       <r>   -23.8120     0.0000    16.0000 </r>
       <r>   -23.6635     0.0000    16.0000 </r>
       <r>   -23.5149     0.0000    16.0000 </r>
       <r>   -23.3664     0.0000    16.0000 </r>
       <r>   -23.2179     0.0000    16.0000 </r>
       <r>   -23.0693     0.0000    16.0000 </r>
       <r>   -22.9208     0.0000    16.0000 </r>
       <r>   -22.7723     0.0000    16.0000 </r>
       <r>   -22.6237     0.0000    16.0000 </r>
       <r>   -22.4752     0.0000    16.0000 </r>
       <r>   -22.3267     0.0000    16.0000 </r>
       <r>   -22.1781     0.0000    16.0000 </r>
       <r>   -22.0296     0.0000    16.0000 </r>
       <r>   -21.8810     0.0000    16.0000 </r>
       <r>   -21.7325     0.0000    16.0000 </r>
       <r>   -21.5840     0.0000    16.0000 </r>
       <r>   -21.4354     0.0000    16.0000 </r>
       <r>   -21.2869     0.0000    16.0000 </r>
       <r>   -21.1384     0.0000    16.0000 </r>
       <r>   -20.9898     0.0000    16.0000 </r>
       <r>   -20.8413     0.0000    16.0000 </r>
       <r>   -20.6928     0.0000    16.0000 </r>
       <r>   -20.5442     0.0000    16.0000 </r>
       <r>   -20.3957     0.0000    16.0000 </r>
       <r>   -20.2471     0.0000    16.0000 </r>
       <r>   -20.0986     0.0000    16.0000 </r>
       <r>   -19.9501     0.0000    16.0000 </r>
       <r>   -19.8015     0.0000    16.0000 </r>
       <r>   -19.6530     0.0000    16.0000 </r>
       <r>   -19.5045     0.0000    16.0000 </r>
       <r>   -19.3559     0.0000    16.0000 </r>
       <r>   -19.2074     0.0000    16.0000 </r>
       <r>   -19.0589     0.0000    16.0000 </r>
       <r>   -18.9103     0.0000    16.0000 </r>
       <r>   -18.7618     0.0000    16.0000 </r>
       <r>   -18.6133     0.0000    16.0000 </r>
       <r>   -18.4647     0.0000    16.0000 </r>
       <r>   -18.3162    51.9102    16.3122 </r>
       <r>   -18.1676   348.2090    37.8267 </r>
       <r>   -18.0191   264.7379    64.3370 </r>
       <r>   -17.8706     0.0000    96.0000 </r>
       <r>   -17.7220     0.0000    96.0000 </r>
       <r>   -17.5735     0.0000    96.0000 </r>
       <r>   -17.4250     0.0000    96.0000 </r>
       <r>   -17.2764     0.0000    96.0000 </r>
       <r>   -17.1279     0.0000    96.0000 </r>
       <r>   -16.9794     0.0000    96.0000 </r>
       <r>   -16.8308     0.0000    96.0000 </r>
       <r>   -16.6823     0.0000    96.0000 </r>
       <r>   -16.5337     0.0000    96.0000 </r>
       <r>   -16.3852     0.0000    96.0000 </r>
       <r>   -16.2367     0.0000    96.0000 </r>
       <r>   -16.0881     0.0000    96.0000 </r>
       <r>   -15.9396     0.0000    96.0000 </r>
       <r>   -15.7911     0.0000    96.0000 </r>
       <r>   -15.6425     0.0000    96.0000 </r>
       <r>   -15.4940     0.0000    96.0000 </r>
       <r>   -15.3455     0.0000    96.0000 </r>
       <r>   -15.1969     0.0000    96.0000 </r>
       <r>   -15.0484     0.0000    96.0000 </r>
       <r>   -14.8999     0.0000    96.0000 </r>
       <r>   -14.7513     0.0000    96.0000 </r>
       <r>   -14.6028     0.0000    96.0000 </r>
       <r>   -14.4542     0.0000    96.0000 </r>
       <r>   -14.3057     0.0000    96.0000 </r>
       <r>   -14.1572     0.0000    96.0000 </r>
       <r>   -14.0086     0.0000    96.0000 </r>
       <r>   -13.8601     6.5910    96.1651 </r>
       <r>   -13.7116     9.7793    97.4709 </r>
       <r>   -13.5630    13.1921    99.0645 </r>
       <r>   -13.4145    20.3602   102.1448 </r>
       <r>   -13.2660    19.5640   105.2348 </r>
       <r>   -13.1174    27.3264   107.8369 </r>
       <r>   -12.9689    10.2876   110.3319 </r>
       <r>   -12.8203    13.2414   112.2473 </r>
       <r>   -12.6718    11.9569   114.1273 </r>
       <r>   -12.5233    11.8271   115.9810 </r>
       <r>   -12.3747    36.9586   120.6556 </r>
       <r>   -12.2262    53.7918   125.9913 </r>
       <r>   -12.0777    30.7107   131.9784 </r>
       <r>   -11.9291    43.0583   137.5775 </r>
       <r>   -11.7806    18.3641   141.7191 </r>
       <r>   -11.6321     6.9996   143.0819 </r>
       <r>   -11.4835     3.6678   143.8873 </r>
       <r>   -11.3350     0.0000   144.0000 </r>
       <r>   -11.1865     0.0000   144.0000 </r>
       <r>   -11.0379     0.0000   144.0000 </r>
       <r>   -10.8894     0.0000   144.0000 </r>
       <r>   -10.7408     0.0000   144.0000 </r>
       <r>   -10.5923     0.0000   144.0000 </r>
       <r>   -10.4438     0.0000   144.0000 </r>
       <r>   -10.2952     0.0000   144.0000 </r>
       <r>   -10.1467    36.2551   145.3396 </r>
       <r>    -9.9982    26.8500   149.3059 </r>
       <r>    -9.8496    82.2476   154.9503 </r>
       <r>    -9.7011    90.9259   166.3096 </r>
       <r>    -9.5526    45.2761   175.9202 </r>
       <r>    -9.4040    28.6808   181.2949 </r>
       <r>    -9.2555    11.8059   185.1737 </r>
       <r>    -9.1069     9.2903   191.9643 </r>
       <r>    -8.9584     0.0000   192.0000 </r>
       <r>    -8.8099     0.0000   192.0000 </r>
       <r>    -8.6613     0.0000   192.0000 </r>
       <r>    -8.5128     0.0000   192.0000 </r>
       <r>    -8.3643     0.0000   192.0000 </r>
       <r>    -8.2157     0.0000   192.0000 </r>
       <r>    -8.0672     0.0000   192.0000 </r>
       <r>    -7.9187     0.0000   192.0000 </r>
       <r>    -7.7701     0.0000   192.0000 </r>
       <r>    -7.6216     0.0000   192.0000 </r>
       <r>    -7.4730     0.0000   192.0000 </r>
       <r>    -7.3245     0.0000   192.0000 </r>
       <r>    -7.1760     0.0000   192.0000 </r>
       <r>    -7.0274     0.0000   192.0000 </r>
       <r>    -6.8789     0.0000   192.0000 </r>
       <r>    -6.7304     0.0000   192.0000 </r>
       <r>    -6.5818     0.0000   192.0000 </r>
       <r>    -6.4333     0.0000   192.0000 </r>
       <r>    -6.2848     0.0000   192.0000 </r>
       <r>    -6.1362     0.0000   192.0000 </r>
       <r>    -5.9877     5.6804   192.7622 </r>
       <r>    -5.8392     5.4723   193.5678 </r>
       <r>    -5.6906     5.2709   194.2545 </r>
       <r>    -5.5421    11.5601   195.6788 </r>
       <r>    -5.3935    14.3356   197.8716 </r>
       <r>    -5.2450    18.7227   200.3053 </r>
       <r>    -5.0965    10.2308   202.2390 </r>
       <r>    -4.9479     8.1757   203.5393 </r>
       <r>    -4.7994     7.3435   204.7025 </r>
       <r>    -4.6509     6.5496   205.7328 </r>
       <r>    -4.5023     7.6611   206.8101 </r>
       <r>    -4.3538     4.0883   207.9568 </r>
       <r>    -4.2053     0.0000   208.0000 </r>
       <r>    -4.0567     0.0000   208.0000 </r>
       <r>    -3.9082     0.0000   208.0000 </r>
       <r>    -3.7596     0.0000   208.0000 </r>
       <r>    -3.6111     0.0000   208.0000 </r>
       <r>    -3.4626     0.0000   208.0000 </r>
       <r>    -3.3140     0.0000   208.0000 </r>
       <r>    -3.1655     0.0000   208.0000 </r>
       <r>    -3.0170     0.0000   208.0000 </r>
       <r>    -2.8684     0.0000   208.0000 </r>
       <r>    -2.7199     0.0000   208.0000 </r>
       <r>    -2.5714     0.0000   208.0000 </r>
       <r>    -2.4228     0.0000   208.0000 </r>
       <r>    -2.2743     0.0000   208.0000 </r>
       <r>    -2.1258     1.8548   208.1590 </r>
       <r>    -1.9772     2.0878   208.4461 </r>
       <r>    -1.8287     2.4389   208.7781 </r>
       <r>    -1.6801     3.1722   209.1911 </r>
       <r>    -1.5316     6.3094   209.8130 </r>
       <r>    -1.3831     9.2352   211.3552 </r>
       <r>    -1.2345     7.1717   212.5017 </r>
       <r>    -1.0860     6.5003   213.5553 </r>
       <r>    -0.9375    12.2338   215.0489 </r>
       <r>    -0.7889    12.9152   216.9062 </r>
       <r>    -0.6404    18.0601   219.0129 </r>
       <r>    -0.4919    16.6663   221.4717 </r>
       <r>    -0.3433    12.9493   223.9461 </r>
       <r>    -0.1948    21.9936   226.8953 </r>
       <r>    -0.0462    20.0967   229.9633 </r>
       <r>     0.1023    20.4854   232.8951 </r>
       <r>     0.2508    21.0940   235.9774 </r>
       <r>     0.3994    25.3744   239.6162 </r>
       <r>     0.5479    33.8982   243.8132 </r>
       <r>     0.6964    34.8964   248.5449 </r>
       <r>     0.8450    55.0562   255.3073 </r>
       <r>     0.9935    32.8178   260.9543 </r>
       <r>     1.1420    29.1172   265.7720 </r>
       <r>     1.2906    34.2053   270.6512 </r>
       <r>     1.4391    24.1199   274.9713 </r>
       <r>     1.5877    29.4392   278.9644 </r>
       <r>     1.7362    34.3854   284.4456 </r>
       <r>     1.8847    49.6659   289.8771 </r>
       <r>     2.0333    32.2120   296.0547 </r>
       <r>     2.1818    28.7728   300.8297 </r>
       <r>     2.3303    58.1567   305.7709 </r>
       <r>     2.4789    74.7955   313.6745 </r>
       <r>     2.6274    53.5661   323.2152 </r>
       <r>     2.7759    28.3623   329.2876 </r>
       <r>     2.9245    40.0740   335.1284 </r>
       <r>     3.0730    45.8116   341.3646 </r>
       <r>     3.2215    22.6867   346.9922 </r>
       <r>     3.3701    18.2660   349.9337 </r>
       <r>     3.5186    13.1341   352.2565 </r>
       <r>     3.6672    19.6155   354.4189 </r>
       <r>     3.8157    22.9781   358.5282 </r>
       <r>     3.9642    23.9018   361.9598 </r>
       <r>     4.1128    17.9295   366.1684 </r>
       <r>     4.2613    16.5218   368.5184 </r>
       <r>     4.4098    24.9966   371.3701 </r>
       <r>     4.5584    23.8424   375.2011 </r>
       <r>     4.7069    40.1230   379.2198 </r>
       <r>     4.8554    14.4218   383.7857 </r>
       <r>     5.0040     4.0840   384.8979 </r>
       <r>     5.1525     2.4950   385.2208 </r>
       <r>     5.3011     5.8961   385.8191 </r>
       <r>     5.4496     6.2081   386.6349 </r>
       <r>     5.5981     7.3551   387.6023 </r>
       <r>     5.7467     6.2018   388.6439 </r>
       <r>     5.8952     6.3166   389.5999 </r>
       <r>     6.0437     6.2936   390.5295 </r>
       <r>     6.1923     7.7169   391.5720 </r>
       <r>     6.3408     8.4594   392.7104 </r>
       <r>     6.4893     9.3759   394.0338 </r>
       <r>     6.6379    12.1947   395.8162 </r>
       <r>     6.7864    10.5882   397.6650 </r>
       <r>     6.9349     9.2452   399.1671 </r>
       <r>     7.0835     8.2710   400.4659 </r>
       <r>     7.2320     7.6508   401.6446 </r>
       <r>     7.3806     5.7409   402.6743 </r>
       <r>     7.5291     5.6949   403.5212 </r>
       <r>     7.6776     5.8853   404.3773 </r>
       <r>     7.8262    10.7588   405.4887 </r>
       <r>     7.9747    12.0667   407.3472 </r>
       <r>     8.1232     9.3663   408.9681 </r>
       <r>     8.2718     8.7392   410.4763 </r>
       <r>     8.4203     9.7273   411.9457 </r>
       <r>     8.5688     9.3898   413.5510 </r>
       <r>     8.7174    30.1808   415.6643 </r>
       <r>     8.8659    12.6984   418.0453 </r>
       <r>     9.0145    17.9543   421.0415 </r>
       <r>     9.1630    13.0641   423.4778 </r>
       <r>     9.3115    13.2431   425.1291 </r>
       <r>     9.4601    11.2003   427.3663 </r>
       <r>     9.6086     9.6903   428.9379 </r>
       <r>     9.7571    18.5623   432.0243 </r>
       <r>     9.9057    18.0027   434.8073 </r>
       <r>    10.0542    14.2970   437.5089 </r>
       <r>    10.2027     8.0661   439.1958 </r>
       <r>    10.3513     9.0532   440.2162 </r>
       <r>    10.4998     8.3530   441.7090 </r>
       <r>    10.6484     6.0145   442.6361 </r>
       <r>    10.7969     8.1578   443.6833 </r>
       <r>    10.9454    19.5737   445.4115 </r>
       <r>    11.0940    13.1605   447.5292 </r>
       <r>    11.2425    10.7688   449.3033 </r>
       <r>    11.3910    14.0743   450.8924 </r>
       <r>    11.5396    17.1457   453.1075 </r>
       <r>    11.6881    20.1314   456.2695 </r>
       <r>    11.8366    23.8202   459.6305 </r>
       <r>    11.9852    28.8777   463.4044 </r>
       <r>    12.1337    23.6831   466.6056 </r>
       <r>    12.2822    31.2673   470.7902 </r>
       <r>    12.4308    24.1469   475.4887 </r>
       <r>    12.5793    13.6345   478.7715 </r>
       <r>    12.7279     1.4942   479.9797 </r>
       <r>    12.8764     0.0000   480.0000 </r>
       <r>    13.0249     0.0000   480.0000 </r>
       <r>    13.1735     0.0000   480.0000 </r>
       <r>    13.3220     0.0000   480.0000 </r>
       <r>    13.4705     0.0000   480.0000 </r>
       <r>    13.6191     0.0000   480.0000 </r>
       <r>    13.7676     0.0000   480.0000 </r>
       <r>    13.9161     0.0000   480.0000 </r>
       <r>    14.0647     0.0000   480.0000 </r>
       <r>    14.2132     0.0000   480.0000 </r>
       <r>    14.3618     0.0000   480.0000 </r>
       <r>    14.5103     0.0000   480.0000 </r>
       <r>    14.6588     0.0000   480.0000 </r>
       <r>    14.8074     0.0000   480.0000 </r>
      </set>
     </set>
    </array>
   </total>
  </dos>
 </calculation>
 <structure name="finalpos" >
  <crystal>
   <varray name="basis" >
    <v>       5.02588700       0.00000000       0.00000000 </v>
    <v>       0.00000000       5.27499547       0.00000000 </v>
    <v>       0.00000000       0.00000000      24.03052794 </v>
   </varray>
   <i name="volume">    637.08608957 </i>
   <varray name="rec_basis" >
    <v>       0.19896985       0.00000000       0.00000000 </v>
    <v>       0.00000000       0.18957362       0.00000000 </v>
    <v>       0.00000000       0.00000000       0.04161373 </v>
   </varray>
  </crystal>
  <varray name="positions" >
   <v>       0.00000000       0.23390644       0.14487627 </v>
   <v>       0.00000000       0.73390644       0.64487627 </v>
   <v>       0.00000000       0.76609356       0.85512373 </v>
   <v>       0.00000000       0.26609356       0.35512373 </v>
   <v>       0.50000000       0.76609356       0.14487627 </v>
   <v>       0.50000000       0.26609356       0.64487627 </v>
   <v>       0.50000000       0.23390644       0.85512373 </v>
   <v>       0.50000000       0.73390644       0.35512373 </v>
   <v>       0.50000000       0.33351011       0.06193899 </v>
   <v>       0.50000000       0.83351011       0.56193899 </v>
   <v>       0.50000000       0.66648989       0.93806101 </v>
   <v>       0.50000000       0.16648989       0.43806101 </v>
   <v>       0.00000000       0.66648989       0.06193899 </v>
   <v>       0.00000000       0.16648989       0.56193899 </v>
   <v>       0.00000000       0.33351011       0.93806101 </v>
   <v>       0.00000000       0.83351011       0.43806101 </v>
   <v>       0.75000000       0.50000000       0.24940114 </v>
   <v>       0.75000000       0.00000000       0.74940114 </v>
   <v>       0.75000000       0.50000000       0.75059886 </v>
   <v>       0.75000000       0.00000000       0.25059886 </v>
   <v>       0.25000000       0.50000000       0.75059886 </v>
   <v>       0.25000000       0.00000000       0.25059886 </v>
   <v>       0.25000000       0.50000000       0.24940114 </v>
   <v>       0.25000000       0.00000000       0.74940114 </v>
   <v>       0.50000000       0.75000000       0.25000000 </v>
   <v>       0.50000000       0.25000000       0.75000000 </v>
   <v>       0.00000000       0.25000000       0.25000000 </v>
   <v>       0.00000000       0.75000000       0.75000000 </v>
   <v>       0.50000000       0.24915073       0.17682794 </v>
   <v>       0.50000000       0.74915073       0.67682794 </v>
   <v>       0.50000000       0.75084927       0.82317206 </v>
   <v>       0.50000000       0.25084927       0.32317206 </v>
   <v>       0.00000000       0.75084927       0.17682794 </v>
   <v>       0.00000000       0.25084927       0.67682794 </v>
   <v>       0.00000000       0.24915073       0.82317206 </v>
   <v>       0.00000000       0.74915073       0.32317206 </v>
   <v>       0.00000000       0.26024491       0.06014681 </v>
   <v>       0.00000000       0.76024491       0.56014681 </v>
   <v>       0.00000000       0.73975509       0.93985319 </v>
   <v>       0.00000000       0.23975509       0.43985319 </v>
   <v>       0.50000000       0.73975509       0.06014681 </v>
   <v>       0.50000000       0.23975509       0.56014681 </v>
   <v>       0.50000000       0.26024491       0.93985319 </v>
   <v>       0.50000000       0.76024491       0.43985319 </v>
  </varray>
 </structure>
</modeling>
