 vasp.5.4.1 05Feb16 (build May 08 2017 17:05:30) complex                        
  
 executed on           IFC91_ompi date 2017.05.26  16:08:59
 running on   28 total cores
 distrk:  each k-point on   28 cores,    1 groups
 distr:  one band on NCORES_PER_BAND=   1 cores,   28 groups


--------------------------------------------------------------------------------------------------------


 INCAR:
 POTCAR:    PAW_PBE O 08Apr2002                   
 POTCAR:    PAW_PBE Ti 08Apr2002                  

 ----------------------------------------------------------------------------- 
|                                                                             |
|           W    W    AA    RRRRR   N    N  II  N    N   GGGG   !!!           |
|           W    W   A  A   R    R  NN   N  II  NN   N  G    G  !!!           |
|           W    W  A    A  R    R  N N  N  II  N N  N  G       !!!           |
|           W WW W  AAAAAA  RRRRR   N  N N  II  N  N N  G  GGG   !            |
|           WW  WW  A    A  R   R   N   NN  II  N   NN  G    G                |
|           W    W  A    A  R    R  N    N  II  N    N   GGGG   !!!           |
|                                                                             |
|      For optimal performance we recommend to set                            |
|        NCORE= 4 - approx SQRT( number of cores)                             |
|      NCORE specifies how many cores store one orbital (NPAR=cpu/NCORE).     |
|      This setting can  greatly improve the performance of VASP for DFT.     |
|      The default, NPAR=number of cores might be grossly inefficient         |
|      on modern multi-core architectures or massively parallel machines.     |
|      Do your own testing !!!!                                               |
|      Unfortunately you need to use the default for GW and RPA calculations. |
|      (for HF NCORE is supported but not extensively tested yet)             |
|                                                                             |
 ----------------------------------------------------------------------------- 

 POTCAR:    PAW_PBE O 08Apr2002                   
   VRHFIN =O: s2p4                                                              
   LEXCH  = PE                                                                  
   EATOM  =   432.3788 eV,   31.7789 Ry                                         
                                                                                
   TITEL  = PAW_PBE O 08Apr2002                                                 
   LULTRA =        F    use ultrasoft PP ?                                      
   IUNSCR =        1    unscreen: 0-lin 1-nonlin 2-no                           
   RPACOR =    1.200    partial core radius                                     
   POMASS =   16.000; ZVAL   =    6.000    mass and valenz                      
   RCORE  =    1.520    outmost cutoff radius                                   
   RWIGS  =    1.550; RWIGS  =    0.820    wigner-seitz radius (au A)           
   ENMAX  =  400.000; ENMIN  =  300.000 eV                                      
   ICORE  =        2    local potential                                         
   LCOR   =        T    correct aug charges                                     
   LPAW   =        T    paw PP                                                  
   EAUG   =  605.392                                                            
   DEXC   =    0.000                                                            
   RMAX   =    1.553    core radius for proj-oper                               
   RAUG   =    1.300    factor for augmentation sphere                          
   RDEP   =    1.550    radius for radial grids                                 
   RDEPT  =    1.329    core radius for aug-charge                              
                                                                                
   Atomic configuration                                                         
    4 entries                                                                   
     n  l   j            E        occ.                                          
     1  0  0.50      -514.6923   2.0000                                         
     2  0  0.50       -23.9615   2.0000                                         
     2  1  0.50        -9.0305   4.0000                                         
     3  2  1.50        -9.5241   0.0000                                         
   Description                                                                  
     l       E           TYP  RCUT    TYP  RCUT                                 
     0    -23.9615318     23  1.200                                             
     0     -9.5240782     23  1.200                                             
     1     -9.0304911     23  1.520                                             
     1      8.1634956     23  1.520                                             
     2     -9.5240782      7  1.500                                             
  local pseudopotential read in
  partial core-charges read in
  partial kinetic energy density read in
  kinetic energy density of atom read in
  atomic valenz-charges read in
  non local Contribution for L=           0  read in
    real space projection operators read in
  non local Contribution for L=           0  read in
    real space projection operators read in
  non local Contribution for L=           1  read in
    real space projection operators read in
  non local Contribution for L=           1  read in
    real space projection operators read in
    PAW grid and wavefunctions read in
 
   number of l-projection  operators is LMAX  =           4
   number of lm-projection operators is LMMAX =           8
 
 POTCAR:    PAW_PBE Ti 08Apr2002                  
   VRHFIN =Ti: d3 s1                                                            
   LEXCH  = PE                                                                  
   EATOM  =    94.7928 eV,    6.9671 Ry                                         
                                                                                
   TITEL  = PAW_PBE Ti 08Apr2002                                                
   LULTRA =        F    use ultrasoft PP ?                                      
   IUNSCR =        1    unscreen: 0-lin 1-nonlin 2-no                           
   RPACOR =    2.200    partial core radius                                     
   POMASS =   47.880; ZVAL   =    4.000    mass and valenz                      
   RCORE  =    2.800    outmost cutoff radius                                   
   RWIGS  =    2.500; RWIGS  =    1.323    wigner-seitz radius (au A)           
   ENMAX  =  178.330; ENMIN  =  133.747 eV                                      
   RCLOC  =    2.215    cutoff for local pot                                    
   LCOR   =        T    correct aug charges                                     
   LPAW   =        T    paw PP                                                  
   EAUG   =  328.883                                                            
   DEXC   =    0.000                                                            
   RMAX   =    2.868    core radius for proj-oper                               
   RAUG   =    1.300    factor for augmentation sphere                          
   RDEP   =    2.885    radius for radial grids                                 
   RDEPT  =    2.320    core radius for aug-charge                              
                                                                                
   Atomic configuration                                                         
    9 entries                                                                   
     n  l   j            E        occ.                                          
     1  0  0.50     -4865.3608   2.0000                                         
     2  0  0.50      -533.1367   2.0000                                         
     2  1  1.50      -440.5031   6.0000                                         
     3  0  0.50       -59.3186   2.0000                                         
     3  1  1.50       -35.7012   6.0000                                         
     3  2  2.50        -1.9157   3.0000                                         
     4  0  0.50        -3.7291   1.0000                                         
     4  1  1.50        -4.0817   0.0000                                         
     4  3  2.50        -1.3606   0.0000                                         
   Description                                                                  
     l       E           TYP  RCUT    TYP  RCUT                                 
     2     -1.9156924     23  2.800                                             
     2     -0.4062961     23  2.800                                             
     0     -3.7290832     23  2.800                                             
     0     20.4087390     23  2.800                                             
     1     -5.4423304     23  2.800                                             
  local pseudopotential read in
  partial core-charges read in
  partial kinetic energy density read in
  atomic valenz-charges read in
  non local Contribution for L=           2  read in
    real space projection operators read in
  non local Contribution for L=           2  read in
    real space projection operators read in
  non local Contribution for L=           0  read in
    real space projection operators read in
  non local Contribution for L=           0  read in
    real space projection operators read in
  non local Contribution for L=           1  read in
    real space projection operators read in
    PAW grid and wavefunctions read in
 
   number of l-projection  operators is LMAX  =           5
   number of lm-projection operators is LMMAX =          15
 
  PAW_PBE O 08Apr2002                   :
 energy of atom  1       EATOM= -432.3788
 kinetic energy error for atom=    0.0168 (will be added to EATOM!!)
  PAW_PBE Ti 08Apr2002                  :
 energy of atom  2       EATOM=  -94.7928
 kinetic energy error for atom=    0.0001 (will be added to EATOM!!)
 
 
 POSCAR: TiO2                                    
  positions in direct lattice
  velocities in cartesian coordinates
 exchange correlation table for  LEXCH =        8
   RHO(1)=    0.500       N(1)  =     2000
   RHO(2)=  100.500       N(2)  =     4000

 VTST: version 3.1, (03/28/14)

 CHAIN: initializing optimizer
 
 OPT: Using VASP Dynamics algorithm
 CHAIN: Read ICHAIN            0
 
 POSCAR: TiO2                                    
  positions in direct lattice
  velocities in cartesian coordinates
 


--------------------------------------------------------------------------------------------------------


 ion  position               nearest neighbor table
   1  0.000  0.000  0.208-  11 1.96  11 1.96   9 2.00
   2  0.500  0.500  0.708-  12 1.96  12 1.96  10 2.00
   3  0.000  0.500  0.458-  10 1.96  10 1.96  11 2.00
   4  0.500  0.000  0.958-   9 1.96   9 1.96  12 2.00
   5  0.500  0.000  0.542-  10 1.96  10 1.96  12 2.00
   6  0.000  0.500  0.042-   9 1.96   9 1.96  11 2.00
   7  0.500  0.500  0.292-  11 1.96  11 1.96  10 2.00
   8  0.000  0.000  0.792-  12 1.96  12 1.96   9 2.00
   9  0.000  0.000  0.000-   4 1.96   6 1.96   6 1.96   4 1.96   1 2.00   8 2.00  11 3.07  11 3.07
                            12 3.07  12 3.07
  10  0.500  0.500  0.500-   3 1.96   5 1.96   5 1.96   3 1.96   2 2.00   7 2.00  11 3.07  12 3.07
                            12 3.07  11 3.07
  11  0.000  0.500  0.250-   1 1.96   7 1.96   1 1.96   7 1.96   6 2.00   3 2.00   9 3.07   9 3.07
                            10 3.07  10 3.07
  12  0.500  0.000  0.750-   2 1.96   8 1.96   2 1.96   8 1.96   5 2.00   4 2.00   9 3.07  10 3.07
                            10 3.07   9 3.07
 
  LATTYP: Found a simple tetragonal cell.
 ALAT       =     3.8309874473
 C/A-ratio  =     2.5108790776
  
  Lattice vectors:
  
 A1 = (   3.8309874473,   0.0000000000,   0.0000000000)
 A2 = (   0.0000000000,   3.8309874473,   0.0000000000)
 A3 = (   0.0000000000,   0.0000000000,   9.6191462278)


Analysis of symmetry for initial positions (statically):
=====================================================================
 Subroutine PRICEL returns following result:
 
  LATTYP: Found a body centered tetragonal cell.
 ALAT       =     3.8309874473
 C/A-ratio  =     2.5108790776
  
  Lattice vectors:
  
 A1 = (  -1.9154937236,   1.9154937236,  -4.8095731139)
 A2 = (   1.9154937236,  -1.9154937236,  -4.8095731139)
 A3 = (  -1.9154937236,  -1.9154937236,   4.8095731139)
 
   2 primitive cells build up your supercell.
 

 Routine SETGRP: Setting up the symmetry group for a 
 simple tetragonal supercell.


 Subroutine GETGRP returns: Found 16 space group operations
 (whereof  8 operations were pure point group operations)
 out of a pool of 16 trial point group operations.


The static configuration has the point symmetry D_2d.
 The point group associated with its full space group is D_4h.


Analysis of symmetry for dynamics (positions and initial velocities):
=====================================================================
 Subroutine PRICEL returns following result:
 
  LATTYP: Found a body centered tetragonal cell.
 ALAT       =     3.8309874473
 C/A-ratio  =     2.5108790776
  
  Lattice vectors:
  
 A1 = (  -1.9154937236,   1.9154937236,  -4.8095731139)
 A2 = (   1.9154937236,  -1.9154937236,  -4.8095731139)
 A3 = (  -1.9154937236,  -1.9154937236,   4.8095731139)
 
   2 primitive cells build up your supercell.
 

 Routine SETGRP: Setting up the symmetry group for a 
 simple tetragonal supercell.


 Subroutine GETGRP returns: Found 16 space group operations
 (whereof  8 operations were pure point group operations)
 out of a pool of 16 trial point group operations.


The dynamic configuration has the point symmetry D_2d.
 The point group associated with its full space group is D_4h.


Analysis of structural, dynamic, and magnetic symmetry:
=====================================================================
 Subroutine PRICEL returns following result:
 
  LATTYP: Found a body centered tetragonal cell.
 ALAT       =     3.8309874473
 C/A-ratio  =     2.5108790776
  
  Lattice vectors:
  
 A1 = (  -1.9154937236,   1.9154937236,  -4.8095731139)
 A2 = (   1.9154937236,  -1.9154937236,  -4.8095731139)
 A3 = (  -1.9154937236,  -1.9154937236,   4.8095731139)
 
   2 primitive cells build up your supercell.
 

 Routine SETGRP: Setting up the symmetry group for a 
 simple tetragonal supercell.


 Subroutine GETGRP returns: Found 16 space group operations
 (whereof  8 operations were pure point group operations)
 out of a pool of 16 trial point group operations.


The magnetic configuration has the point symmetry D_2d.
 The point group associated with its full space group is D_4h.


 Subroutine INISYM returns: Found 16 space group operations
 (whereof  8 operations are pure point group operations),
 and found     2 'primitive' translations

 
 
 KPOINTS: Line_mode KPOINTS file                  
  interpolating k-points between supplied coordinates
  k-points in reciprocal lattice
Space group operators:
 irot       det(A)        alpha          n_x          n_y          n_z        tau_x        tau_y        tau_z
    1     1.000000     0.000000     1.000000     0.000000     0.000000     0.000000     0.000000     0.000000
    2    -1.000000    90.000000     0.000000     0.000000    -1.000000     0.000000     0.000000     0.000000
    3     1.000000   180.000000     0.000000     0.000000     1.000000     0.000000     0.000000     0.000000
    4    -1.000000    90.000000     0.000000     0.000000     1.000000     0.000000     0.000000     0.000000
    5    -1.000000   180.000000     0.000000     1.000000     0.000000     0.000000     0.000000     0.000000
    6     1.000000   180.000000     0.707107     0.707107     0.000000     0.000000     0.000000     0.000000
    7    -1.000000   180.000000     1.000000     0.000000     0.000000     0.000000     0.000000     0.000000
    8     1.000000   180.000000     0.707107    -0.707107     0.000000     0.000000     0.000000     0.000000
    9    -1.000000     0.000000     1.000000     0.000000     0.000000    -0.500000    -0.000000    -0.250000
   10     1.000000    90.000000     0.000000     0.000000    -1.000000    -0.500000    -0.000000    -0.250000
   11    -1.000000   180.000000     0.000000     0.000000     1.000000    -0.500000    -0.000000    -0.250000
   12     1.000000    90.000000     0.000000     0.000000     1.000000    -0.500000    -0.000000    -0.250000
   13     1.000000   180.000000     0.000000     1.000000     0.000000    -0.500000    -0.000000    -0.250000
   14    -1.000000   180.000000     0.707107     0.707107     0.000000    -0.500000    -0.000000    -0.250000
   15     1.000000   180.000000     1.000000     0.000000     0.000000    -0.500000    -0.000000    -0.250000
   16    -1.000000   180.000000     0.707107    -0.707107     0.000000    -0.500000    -0.000000    -0.250000


--------------------------------------------------------------------------------------------------------




 Dimension of arrays:
   k-points           NKPTS =    220   k-points in BZ     NKDIM =    220   number of bands    NBANDS=     56
   number of dos      NEDOS =    301   number of ions     NIONS =     12
   non local maximal  LDIM  =      5   non local SUM 2l+1 LMDIM =     15
   total plane-waves  NPLWV =  81920
   max r-space proj   IRMAX =      1   max aug-charges    IRDMAX=  40271
   dimension x,y,z NGX =    32 NGY =   32 NGZ =   80
   dimension x,y,z NGXF=    64 NGYF=   64 NGZF=  160
   support grid    NGXF=    64 NGYF=   64 NGZF=  160
   ions per type =               8   4
 NGX,Y,Z   is equivalent  to a cutoff of  13.89, 13.89, 13.83 a.u.
 NGXF,Y,Z  is equivalent  to a cutoff of  27.77, 27.77, 27.65 a.u.


 I would recommend the setting:
   dimension x,y,z NGX =    31 NGY =   31 NGZ =   77
 SYSTEM =  TiO2                                    
 POSCAR =  TiO2                                    

 Startparameter for this run:
   NWRITE =      2    write-flag & timer
   PREC   = accura    normal or accurate (medium, high low for compatibility)
   ISTART =      1    job   : 0-new  1-cont  2-samecut
   ICHARG =     11    charge: 1-file 2-atom 10-const
   ISPIN  =      2    spin polarized calculation?
   LNONCOLLINEAR =      F non collinear calculations
   LSORBIT =      F    spin-orbit coupling
   INIWAV =      1    electr: 0-lowe 1-rand  2-diag
   LASPH  =      F    aspherical Exc in radial PAW
   METAGGA=      F    non-selfconsistent MetaGGA calc.

 Electronic Relaxation 1
   ENCUT  =  600.0 eV  44.10 Ry    6.64 a.u.   7.65  7.65 19.21*2*pi/ulx,y,z
   ENINI  =  600.0     initial cutoff
   ENAUG  =  605.4 eV  augmentation charge cutoff
   NELM   =     60;   NELMIN=  2; NELMDL=  0     # of ELM steps 
   EDIFF  = 0.1E-05   stopping-criterion for ELM
   LREAL  =      F    real-space projection
   NLSPLINE    = F    spline interpolate recip. space projectors
   LCOMPAT=      F    compatible to vasp.4.4
   GGA_COMPAT  = T    GGA compatible to vasp.4.4-vasp.4.6
   LMAXPAW     = -100 max onsite density
   LMAXMIX     =    2 max onsite mixed and CHGCAR
   VOSKOWN=      0    Vosko Wilk Nusair interpolation
   ROPT   =    0.00000   0.00000
 Ionic relaxation
   EDIFFG = 0.1E-04   stopping-criterion for IOM
   NSW    =      0    number of steps for IOM
   NBLOCK =      1;   KBLOCK =      1    inner block; outer block 
   IBRION =     -1    ionic relax: 0-MD 1-quasi-New 2-CG
   NFREE  =      0    steps in history (QN), initial steepest desc. (CG)
   ISIF   =      2    stress and relaxation
   IWAVPR =     10    prediction:  0-non 1-charg 2-wave 3-comb
   ISYM   =      2    0-nonsym 1-usesym 2-fastsym
   LCORR  =      T    Harris-Foulkes like correction to forces

   POTIM  = 0.5000    time-step for ionic-motion
   TEIN   =    0.0    initial temperature
   TEBEG  =    0.0;   TEEND  =   0.0 temperature during run
   SMASS  =  -3.00    Nose mass-parameter (am)
   estimated Nose-frequenzy (Omega)   =  0.10E-29 period in steps =****** mass=  -0.335E-27a.u.
   SCALEE = 1.0000    scale energy and forces
   NPACO  =    256;   APACO  = 16.0  distance and # of slots for P.C.
   PSTRESS=    0.0 pullay stress

  Mass of Ions in am
   POMASS =  16.00 47.88
  Ionic Valenz
   ZVAL   =   6.00  4.00
  Atomic Wigner-Seitz radii
   RWIGS  =  -1.00 -1.00
  virtual crystal weights 
   VCA    =   1.00  1.00
   NELECT =      64.0000    total number of electrons
   NUPDOWN=      -1.0000    fix difference up-down

 DOS related values:
   EMIN   =  10.00;   EMAX   =-10.00  energy-range for DOS
   EFERMI =   0.00
   ISMEAR =     0;   SIGMA  =   0.02  broadening in eV -4-tet -1-fermi 0-gaus

 Electronic relaxation 2 (details)
   IALGO  =     38    algorithm
   LDIAG  =      T    sub-space diagonalisation (order eigenvalues)
   LSUBROT=      F    optimize rotation matrix (better conditioning)
   TURBO    =      0    0=normal 1=particle mesh
   IRESTART =      0    0=no restart 2=restart with 2 vectors
   NREBOOT  =      0    no. of reboots
   NMIN     =      0    reboot dimension
   EREF     =   0.00    reference energy to select bands
   IMIX   =      4    mixing-type and parameters
     AMIX     =   0.40;   BMIX     =  1.00
     AMIX_MAG =   1.60;   BMIX_MAG =  1.00
     AMIN     =   0.10
     WC   =   100.;   INIMIX=   1;  MIXPRE=   1;  MAXMIX= -45

 Intra band minimization:
   WEIMIN = 0.0000     energy-eigenvalue tresh-hold
   EBREAK =  0.45E-08  absolut break condition
   DEPER  =   0.30     relativ break condition  

   TIME   =   0.40     timestep for ELM

  volume/ion in A,a.u.               =      11.76        79.39
  Fermi-wavevector in a.u.,A,eV,Ry     =   1.257618  2.376554 21.519024  1.581604
  Thomas-Fermi vector in A             =   2.391268
 
 Write flags
   LWAVE  =      F    write WAVECAR
   LCHARG =      F    write CHGCAR
   LVTOT  =      F    write LOCPOT, total local potential
   LVHAR  =      F    write LOCPOT, Hartree potential only
   LELF   =      F    write electronic localiz. function (ELF)
   LORBIT =     11    0 simple, 1 ext, 2 COOP (PROOUT)


 Dipole corrections
   LMONO  =      F    monopole corrections only (constant potential shift)
   LDIPOL =      F    correct potential (dipole corrections)
   IDIPOL =      0    1-x, 2-y, 3-z, 4-all directions 
   EPSILON=  1.0000000 bulk dielectric constant

 Exchange correlation treatment:
   GGA     =    PE    GGA type
   LEXCH   =     8    internal setting for exchange type
   VOSKOWN=      0    Vosko Wilk Nusair interpolation
   LHFCALC =     F    Hartree Fock is set to
   LHFONE  =     F    Hartree Fock one center treatment
   AEXX    =    0.0000 exact exchange contribution

 Linear response parameters
   LEPSILON=     F    determine dielectric tensor
   LRPA    =     F    only Hartree local field effects (RPA)
   LNABLA  =     F    use nabla operator in PAW spheres
   LVEL    =     F    velocity operator in full k-point grid
   LINTERFAST=   F  fast interpolation
   KINTER  =     0    interpolate to denser k-point grid
   CSHIFT  =0.1000    complex shift for real part using Kramers Kronig
   OMEGAMAX=  -1.0    maximum frequency
   DEG_THRESHOLD= 0.2000000E-02 threshold for treating states as degnerate
   RTIME   =    0.100 relaxation time in fs

 Orbital magnetization related:
   ORBITALMAG=     F  switch on orbital magnetization
   LCHIMAG   =     F  perturbation theory with respect to B field
   DQ        =  0.001000  dq finite difference perturbation B field



--------------------------------------------------------------------------------------------------------


 Static calculation
 charge density and potential remain constant during run
 spin polarized calculation
 Variant of blocked Davidson
 Davidson routine will perform the subspace rotation
 perform sub-space diagonalisation
    after iterative eigenvector-optimisation
 no mixing
 using additional bands           24
 reciprocal scheme for non local part
 use partial core corrections
 calculate Harris-corrections to forces 
   (improved forces if not selfconsistent)
 use gradient corrections 
 WARNING: stress and forces are not correct
  (second derivative of E(xc) not defined)
 use of overlap-Matrix (Vanderbilt PP)
 Gauss-broadening in eV      SIGMA  =   0.02


--------------------------------------------------------------------------------------------------------


  energy-cutoff  :      600.00
  volume of cell :      141.18
      direct lattice vectors                 reciprocal lattice vectors
     3.830987447  0.000000000  0.000000000     0.261029307  0.000000000  0.000000000
     0.000000000  3.830987447  0.000000000     0.000000000  0.261029307  0.000000000
     0.000000000  0.000000000  9.619146228     0.000000000  0.000000000  0.103959330

  length of vectors
     3.830987447  3.830987447  9.619146228     0.261029307  0.261029307  0.103959330


 
 old parameters found on file WAVECAR:
  energy-cutoff  :      600.00
  volume of cell :      141.18
      direct lattice vectors                 reciprocal lattice vectors
     3.830987447  0.000000000  0.000000000     0.261029307  0.000000000  0.000000000
     0.000000000  3.830987447  0.000000000     0.000000000  0.261029307  0.000000000
     0.000000000  0.000000000  9.619146228     0.000000000  0.000000000  0.103959330

  length of vectors

 
 k-points in units of 2pi/SCALE and weight: Line_mode KPOINTS file                  
   0.00000000  0.00000000  0.00000000       0.005
   0.00000000  0.00000000  0.00273577       0.005
   0.00000000  0.00000000  0.00547154       0.005
   0.00000000  0.00000000  0.00820732       0.005
   0.00000000  0.00000000  0.01094309       0.005
   0.00000000  0.00000000  0.01367886       0.005
   0.00000000  0.00000000  0.01641463       0.005
   0.00000000  0.00000000  0.01915040       0.005
   0.00000000  0.00000000  0.02188617       0.005
   0.00000000  0.00000000  0.02462195       0.005
   0.00000000  0.00000000  0.02735772       0.005
   0.00000000  0.00000000  0.03009349       0.005
   0.00000000  0.00000000  0.03282926       0.005
   0.00000000  0.00000000  0.03556503       0.005
   0.00000000  0.00000000  0.03830081       0.005
   0.00000000  0.00000000  0.04103658       0.005
   0.00000000  0.00000000  0.04377235       0.005
   0.00000000  0.00000000  0.04650812       0.005
   0.00000000  0.00000000  0.04924389       0.005
   0.00000000  0.00000000  0.05197967       0.005
   0.00000000  0.00000000  0.05197967       0.005
  -0.00108661  0.00108661  0.05197967       0.005
  -0.00217322  0.00217322  0.05197967       0.005
  -0.00325982  0.00325982  0.05197967       0.005
  -0.00434643  0.00434643  0.05197967       0.005
  -0.00543304  0.00543304  0.05197967       0.005
  -0.00651965  0.00651965  0.05197967       0.005
  -0.00760625  0.00760625  0.05197967       0.005
  -0.00869286  0.00869286  0.05197967       0.005
  -0.00977947  0.00977947  0.05197967       0.005
  -0.01086608  0.01086608  0.05197967       0.005
  -0.01195268  0.01195268  0.05197967       0.005
  -0.01303929  0.01303929  0.05197967       0.005
  -0.01412590  0.01412590  0.05197967       0.005
  -0.01521251  0.01521251  0.05197967       0.005
  -0.01629912  0.01629912  0.05197967       0.005
  -0.01738572  0.01738572  0.05197967       0.005
  -0.01847233  0.01847233  0.05197967       0.005
  -0.01955894  0.01955894  0.05197967       0.005
  -0.02064555  0.02064555  0.05197967       0.005
  -0.02064555  0.02064555  0.05197967       0.005
  -0.02353684  0.02353684  0.05082816       0.005
  -0.02642813  0.02642813  0.04967665       0.005
  -0.02931942  0.02931942  0.04852515       0.005
  -0.03221072  0.03221072  0.04737364       0.005
  -0.03510201  0.03510201  0.04622214       0.005
  -0.03799330  0.03799330  0.04507063       0.005
  -0.04088459  0.04088459  0.04391912       0.005
  -0.04377588  0.04377588  0.04276762       0.005
  -0.04666718  0.04666718  0.04161611       0.005
  -0.04955847  0.04955847  0.04046461       0.005
  -0.05244976  0.05244976  0.03931310       0.005
  -0.05534105  0.05534105  0.03816159       0.005
  -0.05823235  0.05823235  0.03701009       0.005
  -0.06112364  0.06112364  0.03585858       0.005
  -0.06401493  0.06401493  0.03470708       0.005
  -0.06690622  0.06690622  0.03355557       0.005
  -0.06979752  0.06979752  0.03240406       0.005
  -0.07268881  0.07268881  0.03125256       0.005
  -0.07558010  0.07558010  0.03010105       0.005
  -0.07558010  0.07558010  0.03010105       0.005
  -0.07160220  0.07160220  0.02851679       0.005
  -0.06762430  0.06762430  0.02693252       0.005
  -0.06364640  0.06364640  0.02534825       0.005
  -0.05966850  0.05966850  0.02376399       0.005
  -0.05569060  0.05569060  0.02217972       0.005
  -0.05171270  0.05171270  0.02059546       0.005
  -0.04773480  0.04773480  0.01901119       0.005
  -0.04375690  0.04375690  0.01742692       0.005
  -0.03977900  0.03977900  0.01584266       0.005
  -0.03580110  0.03580110  0.01425839       0.005
  -0.03182320  0.03182320  0.01267413       0.005
  -0.02784530  0.02784530  0.01108986       0.005
  -0.02386740  0.02386740  0.00950560       0.005
  -0.01988950  0.01988950  0.00792133       0.005
  -0.01591160  0.01591160  0.00633706       0.005
  -0.01193370  0.01193370  0.00475280       0.005
  -0.00795580  0.00795580  0.00316853       0.005
  -0.00397790  0.00397790  0.00158427       0.005
   0.00000000  0.00000000  0.00000000       0.005
   0.00000000  0.00000000  0.00000000       0.005
   0.00686919  0.00686919 -0.00273577       0.005
   0.01373838  0.01373838 -0.00547154       0.005
   0.02060758  0.02060758 -0.00820732       0.005
   0.02747677  0.02747677 -0.01094309       0.005
   0.03434596  0.03434596 -0.01367886       0.005
   0.04121515  0.04121515 -0.01641463       0.005
   0.04808435  0.04808435 -0.01915040       0.005
   0.05495354  0.05495354 -0.02188617       0.005
   0.06182273  0.06182273 -0.02462195       0.005
   0.06869192  0.06869192 -0.02735772       0.005
   0.07556112  0.07556112 -0.03009349       0.005
   0.08243031  0.08243031 -0.03282926       0.005
   0.08929950  0.08929950 -0.03556503       0.005
   0.09616869  0.09616869 -0.03830081       0.005
   0.10303788  0.10303788 -0.04103658       0.005
   0.10990708  0.10990708 -0.04377235       0.005
   0.11677627  0.11677627 -0.04650812       0.005
   0.12364546  0.12364546 -0.04924389       0.005
   0.13051465  0.13051465 -0.05197967       0.005
   0.13051465  0.13051465 -0.05197967       0.005
   0.12762336  0.13340595 -0.05082816       0.005
   0.12473207  0.13629724 -0.04967665       0.005
   0.12184078  0.13918853 -0.04852515       0.005
   0.11894948  0.14207982 -0.04737364       0.005
   0.11605819  0.14497112 -0.04622214       0.005
   0.11316690  0.14786241 -0.04507063       0.005
   0.11027561  0.15075370 -0.04391912       0.005
   0.10738432  0.15364499 -0.04276762       0.005
   0.10449302  0.15653628 -0.04161611       0.005
   0.10160173  0.15942758 -0.04046461       0.005
   0.09871044  0.16231887 -0.03931310       0.005
   0.09581915  0.16521016 -0.03816159       0.005
   0.09292785  0.16810145 -0.03701009       0.005
   0.09003656  0.17099275 -0.03585858       0.005
   0.08714527  0.17388404 -0.03470708       0.005
   0.08425398  0.17677533 -0.03355557       0.005
   0.08136268  0.17966662 -0.03240406       0.005
   0.07847139  0.18255792 -0.03125256       0.005
   0.07558010  0.18544921 -0.03010105       0.005
   0.07558010  0.18544921 -0.03010105       0.005
   0.07160220  0.18255792 -0.02851679       0.005
   0.06762430  0.17966662 -0.02693252       0.005
   0.06364640  0.17677533 -0.02534825       0.005
   0.05966850  0.17388404 -0.02376399       0.005
   0.05569060  0.17099275 -0.02217972       0.005
   0.05171270  0.16810145 -0.02059546       0.005
   0.04773480  0.16521016 -0.01901119       0.005
   0.04375690  0.16231887 -0.01742692       0.005
   0.03977900  0.15942758 -0.01584266       0.005
   0.03580110  0.15653628 -0.01425839       0.005
   0.03182320  0.15364499 -0.01267413       0.005
   0.02784530  0.15075370 -0.01108986       0.005
   0.02386740  0.14786241 -0.00950560       0.005
   0.01988950  0.14497112 -0.00792133       0.005
   0.01591160  0.14207982 -0.00633706       0.005
   0.01193370  0.13918853 -0.00475280       0.005
   0.00795580  0.13629724 -0.00316853       0.005
   0.00397790  0.13340595 -0.00158427       0.005
   0.00000000  0.13051465  0.00000000       0.005
   0.00000000  0.13051465  0.00000000       0.005
   0.00343460  0.12708006  0.00136789       0.005
   0.00686919  0.12364546  0.00273577       0.005
   0.01030379  0.12021087  0.00410366       0.005
   0.01373838  0.11677627  0.00547154       0.005
   0.01717298  0.11334167  0.00683943       0.005
   0.02060758  0.10990708  0.00820732       0.005
   0.02404217  0.10647248  0.00957520       0.005
   0.02747677  0.10303788  0.01094309       0.005
   0.03091137  0.09960329  0.01231097       0.005
   0.03434596  0.09616869  0.01367886       0.005
   0.03778056  0.09273410  0.01504675       0.005
   0.04121515  0.08929950  0.01641463       0.005
   0.04464975  0.08586490  0.01778252       0.005
   0.04808435  0.08243031  0.01915040       0.005
   0.05151894  0.07899571  0.02051829       0.005
   0.05495354  0.07556112  0.02188617       0.005
   0.05838813  0.07212652  0.02325406       0.005
   0.06182273  0.06869192  0.02462195       0.005
   0.06525733  0.06525733  0.02598983       0.005
   0.06525733  0.06525733  0.02598983       0.005
   0.06869192  0.06869192  0.02418919       0.005
   0.07212652  0.07212652  0.02238854       0.005
   0.07556112  0.07556112  0.02058790       0.005
   0.07899571  0.07899571  0.01878725       0.005
   0.08243031  0.08243031  0.01698660       0.005
   0.08586490  0.08586490  0.01518596       0.005
   0.08929950  0.08929950  0.01338531       0.005
   0.09273410  0.09273410  0.01158467       0.005
   0.09616869  0.09616869  0.00978402       0.005
   0.09960329  0.09960329  0.00798337       0.005
   0.10303788  0.10303788  0.00618273       0.005
   0.10647248  0.10647248  0.00438208       0.005
   0.10990708  0.10990708  0.00258144       0.005
   0.11334167  0.11334167  0.00078079       0.005
   0.11677627  0.11677627 -0.00101985       0.005
   0.12021087  0.12021087 -0.00282050       0.005
   0.12364546  0.12364546 -0.00462115       0.005
   0.12708006  0.12708006 -0.00642179       0.005
   0.13051465  0.13051465 -0.00822244       0.005
   0.13051465  0.13051465 -0.00822244       0.005
   0.13051465  0.13051465 -0.01052545       0.005
   0.13051465  0.13051465 -0.01282846       0.005
   0.13051465  0.13051465 -0.01513147       0.005
   0.13051465  0.13051465 -0.01743449       0.005
   0.13051465  0.13051465 -0.01973750       0.005
   0.13051465  0.13051465 -0.02204051       0.005
   0.13051465  0.13051465 -0.02434352       0.005
   0.13051465  0.13051465 -0.02664653       0.005
   0.13051465  0.13051465 -0.02894955       0.005
   0.13051465  0.13051465 -0.03125256       0.005
   0.13051465  0.13051465 -0.03355557       0.005
   0.13051465  0.13051465 -0.03585858       0.005
   0.13051465  0.13051465 -0.03816159       0.005
   0.13051465  0.13051465 -0.04046461       0.005
   0.13051465  0.13051465 -0.04276762       0.005
   0.13051465  0.13051465 -0.04507063       0.005
   0.13051465  0.13051465 -0.04737364       0.005
   0.13051465  0.13051465 -0.04967665       0.005
   0.13051465  0.13051465 -0.05197967       0.005
   0.00000000  0.00000000  0.05197967       0.005
   0.00343460  0.00343460  0.05061178       0.005
   0.00686919  0.00686919  0.04924389       0.005
   0.01030379  0.01030379  0.04787601       0.005
   0.01373838  0.01373838  0.04650812       0.005
   0.01717298  0.01717298  0.04514024       0.005
   0.02060758  0.02060758  0.04377235       0.005
   0.02404217  0.02404217  0.04240446       0.005
   0.02747677  0.02747677  0.04103658       0.005
   0.03091137  0.03091137  0.03966869       0.005
   0.03434596  0.03434596  0.03830081       0.005
   0.03778056  0.03778056  0.03693292       0.005
   0.04121515  0.04121515  0.03556503       0.005
   0.04464975  0.04464975  0.03419715       0.005
   0.04808435  0.04808435  0.03282926       0.005
   0.05151894  0.05151894  0.03146138       0.005
   0.05495354  0.05495354  0.03009349       0.005
   0.05838813  0.05838813  0.02872560       0.005
   0.06182273  0.06182273  0.02735772       0.005
   0.06525733  0.06525733  0.02598983       0.005
 
 k-points in reciprocal lattice and weights: Line_mode KPOINTS file                  
   0.00000000  0.00000000  0.00000000       0.005
   0.00000000  0.00000000  0.02631579       0.005
   0.00000000  0.00000000  0.05263158       0.005
   0.00000000  0.00000000  0.07894737       0.005
   0.00000000  0.00000000  0.10526316       0.005
   0.00000000  0.00000000  0.13157895       0.005
   0.00000000  0.00000000  0.15789474       0.005
   0.00000000  0.00000000  0.18421053       0.005
   0.00000000  0.00000000  0.21052632       0.005
   0.00000000  0.00000000  0.23684211       0.005
   0.00000000  0.00000000  0.26315789       0.005
   0.00000000  0.00000000  0.28947368       0.005
   0.00000000  0.00000000  0.31578947       0.005
   0.00000000  0.00000000  0.34210526       0.005
   0.00000000  0.00000000  0.36842105       0.005
   0.00000000  0.00000000  0.39473684       0.005
   0.00000000  0.00000000  0.42105263       0.005
   0.00000000  0.00000000  0.44736842       0.005
   0.00000000  0.00000000  0.47368421       0.005
   0.00000000  0.00000000  0.50000000       0.005
   0.00000000  0.00000000  0.50000000       0.005
  -0.00416278  0.00416278  0.50000000       0.005
  -0.00832556  0.00832556  0.50000000       0.005
  -0.01248834  0.01248834  0.50000000       0.005
  -0.01665112  0.01665112  0.50000000       0.005
  -0.02081390  0.02081390  0.50000000       0.005
  -0.02497668  0.02497668  0.50000000       0.005
  -0.02913946  0.02913946  0.50000000       0.005
  -0.03330224  0.03330224  0.50000000       0.005
  -0.03746502  0.03746502  0.50000000       0.005
  -0.04162780  0.04162780  0.50000000       0.005
  -0.04579058  0.04579058  0.50000000       0.005
  -0.04995336  0.04995336  0.50000000       0.005
  -0.05411614  0.05411614  0.50000000       0.005
  -0.05827892  0.05827892  0.50000000       0.005
  -0.06244171  0.06244171  0.50000000       0.005
  -0.06660449  0.06660449  0.50000000       0.005
  -0.07076727  0.07076727  0.50000000       0.005
  -0.07493005  0.07493005  0.50000000       0.005
  -0.07909283  0.07909283  0.50000000       0.005
  -0.07909283  0.07909283  0.50000000       0.005
  -0.09016933  0.09016933  0.48892350       0.005
  -0.10124584  0.10124584  0.47784699       0.005
  -0.11232234  0.11232234  0.46677049       0.005
  -0.12339884  0.12339884  0.45569398       0.005
  -0.13447535  0.13447535  0.44461748       0.005
  -0.14555185  0.14555185  0.43354097       0.005
  -0.15662836  0.15662836  0.42246447       0.005
  -0.16770486  0.16770486  0.41138796       0.005
  -0.17878137  0.17878137  0.40031146       0.005
  -0.18985787  0.18985787  0.38923495       0.005
  -0.20093438  0.20093438  0.37815845       0.005
  -0.21201088  0.21201088  0.36708195       0.005
  -0.22308739  0.22308739  0.35600544       0.005
  -0.23416389  0.23416389  0.34492894       0.005
  -0.24524040  0.24524040  0.33385243       0.005
  -0.25631690  0.25631690  0.32277593       0.005
  -0.26739340  0.26739340  0.31169942       0.005
  -0.27846991  0.27846991  0.30062292       0.005
  -0.28954641  0.28954641  0.28954641       0.005
  -0.28954641  0.28954641  0.28954641       0.005
  -0.27430713  0.27430713  0.27430713       0.005
  -0.25906784  0.25906784  0.25906784       0.005
  -0.24382856  0.24382856  0.24382856       0.005
  -0.22858927  0.22858927  0.22858927       0.005
  -0.21334999  0.21334999  0.21334999       0.005
  -0.19811070  0.19811070  0.19811070       0.005
  -0.18287142  0.18287142  0.18287142       0.005
  -0.16763213  0.16763213  0.16763213       0.005
  -0.15239285  0.15239285  0.15239285       0.005
  -0.13715356  0.13715356  0.13715356       0.005
  -0.12191428  0.12191428  0.12191428       0.005
  -0.10667499  0.10667499  0.10667499       0.005
  -0.09143571  0.09143571  0.09143571       0.005
  -0.07619642  0.07619642  0.07619642       0.005
  -0.06095714  0.06095714  0.06095714       0.005
  -0.04571785  0.04571785  0.04571785       0.005
  -0.03047857  0.03047857  0.03047857       0.005
  -0.01523928  0.01523928  0.01523928       0.005
   0.00000000  0.00000000  0.00000000       0.005
   0.00000000  0.00000000  0.00000000       0.005
   0.02631579  0.02631579 -0.02631579       0.005
   0.05263158  0.05263158 -0.05263158       0.005
   0.07894737  0.07894737 -0.07894737       0.005
   0.10526316  0.10526316 -0.10526316       0.005
   0.13157895  0.13157895 -0.13157895       0.005
   0.15789474  0.15789474 -0.15789474       0.005
   0.18421053  0.18421053 -0.18421053       0.005
   0.21052632  0.21052632 -0.21052632       0.005
   0.23684211  0.23684211 -0.23684211       0.005
   0.26315789  0.26315789 -0.26315789       0.005
   0.28947368  0.28947368 -0.28947368       0.005
   0.31578947  0.31578947 -0.31578947       0.005
   0.34210526  0.34210526 -0.34210526       0.005
   0.36842105  0.36842105 -0.36842105       0.005
   0.39473684  0.39473684 -0.39473684       0.005
   0.42105263  0.42105263 -0.42105263       0.005
   0.44736842  0.44736842 -0.44736842       0.005
   0.47368421  0.47368421 -0.47368421       0.005
   0.50000000  0.50000000 -0.50000000       0.005
   0.50000000  0.50000000 -0.50000000       0.005
   0.48892350  0.51107650 -0.48892350       0.005
   0.47784699  0.52215301 -0.47784699       0.005
   0.46677049  0.53322951 -0.46677049       0.005
   0.45569398  0.54430602 -0.45569398       0.005
   0.44461748  0.55538252 -0.44461748       0.005
   0.43354097  0.56645903 -0.43354097       0.005
   0.42246447  0.57753553 -0.42246447       0.005
   0.41138796  0.58861204 -0.41138796       0.005
   0.40031146  0.59968854 -0.40031146       0.005
   0.38923495  0.61076505 -0.38923495       0.005
   0.37815845  0.62184155 -0.37815845       0.005
   0.36708195  0.63291805 -0.36708195       0.005
   0.35600544  0.64399456 -0.35600544       0.005
   0.34492894  0.65507106 -0.34492894       0.005
   0.33385243  0.66614757 -0.33385243       0.005
   0.32277593  0.67722407 -0.32277593       0.005
   0.31169942  0.68830058 -0.31169942       0.005
   0.30062292  0.69937708 -0.30062292       0.005
   0.28954641  0.71045359 -0.28954641       0.005
   0.28954641  0.71045359 -0.28954641       0.005
   0.27430713  0.69937708 -0.27430713       0.005
   0.25906784  0.68830058 -0.25906784       0.005
   0.24382856  0.67722407 -0.24382856       0.005
   0.22858927  0.66614757 -0.22858927       0.005
   0.21334999  0.65507106 -0.21334999       0.005
   0.19811070  0.64399456 -0.19811070       0.005
   0.18287142  0.63291805 -0.18287142       0.005
   0.16763213  0.62184155 -0.16763213       0.005
   0.15239285  0.61076505 -0.15239285       0.005
   0.13715356  0.59968854 -0.13715356       0.005
   0.12191428  0.58861204 -0.12191428       0.005
   0.10667499  0.57753553 -0.10667499       0.005
   0.09143571  0.56645903 -0.09143571       0.005
   0.07619642  0.55538252 -0.07619642       0.005
   0.06095714  0.54430602 -0.06095714       0.005
   0.04571785  0.53322951 -0.04571785       0.005
   0.03047857  0.52215301 -0.03047857       0.005
   0.01523928  0.51107650 -0.01523928       0.005
   0.00000000  0.50000000  0.00000000       0.005
   0.00000000  0.50000000  0.00000000       0.005
   0.01315789  0.48684211  0.01315789       0.005
   0.02631579  0.47368421  0.02631579       0.005
   0.03947368  0.46052632  0.03947368       0.005
   0.05263158  0.44736842  0.05263158       0.005
   0.06578947  0.43421053  0.06578947       0.005
   0.07894737  0.42105263  0.07894737       0.005
   0.09210526  0.40789474  0.09210526       0.005
   0.10526316  0.39473684  0.10526316       0.005
   0.11842105  0.38157895  0.11842105       0.005
   0.13157895  0.36842105  0.13157895       0.005
   0.14473684  0.35526316  0.14473684       0.005
   0.15789474  0.34210526  0.15789474       0.005
   0.17105263  0.32894737  0.17105263       0.005
   0.18421053  0.31578947  0.18421053       0.005
   0.19736842  0.30263158  0.19736842       0.005
   0.21052632  0.28947368  0.21052632       0.005
   0.22368421  0.27631579  0.22368421       0.005
   0.23684211  0.26315789  0.23684211       0.005
   0.25000000  0.25000000  0.25000000       0.005
   0.25000000  0.25000000  0.25000000       0.005
   0.26315789  0.26315789  0.23267932       0.005
   0.27631579  0.27631579  0.21535865       0.005
   0.28947368  0.28947368  0.19803797       0.005
   0.30263158  0.30263158  0.18071730       0.005
   0.31578947  0.31578947  0.16339662       0.005
   0.32894737  0.32894737  0.14607595       0.005
   0.34210526  0.34210526  0.12875527       0.005
   0.35526316  0.35526316  0.11143460       0.005
   0.36842105  0.36842105  0.09411392       0.005
   0.38157895  0.38157895  0.07679325       0.005
   0.39473684  0.39473684  0.05947257       0.005
   0.40789474  0.40789474  0.04215190       0.005
   0.42105263  0.42105263  0.02483122       0.005
   0.43421053  0.43421053  0.00751055       0.005
   0.44736842  0.44736842 -0.00981013       0.005
   0.46052632  0.46052632 -0.02713080       0.005
   0.47368421  0.47368421 -0.04445148       0.005
   0.48684211  0.48684211 -0.06177215       0.005
   0.50000000  0.50000000 -0.07909283       0.005
   0.50000000  0.50000000 -0.07909283       0.005
   0.50000000  0.50000000 -0.10124584       0.005
   0.50000000  0.50000000 -0.12339884       0.005
   0.50000000  0.50000000 -0.14555185       0.005
   0.50000000  0.50000000 -0.16770486       0.005
   0.50000000  0.50000000 -0.18985787       0.005
   0.50000000  0.50000000 -0.21201088       0.005
   0.50000000  0.50000000 -0.23416389       0.005
   0.50000000  0.50000000 -0.25631690       0.005
   0.50000000  0.50000000 -0.27846991       0.005
   0.50000000  0.50000000 -0.30062292       0.005
   0.50000000  0.50000000 -0.32277593       0.005
   0.50000000  0.50000000 -0.34492894       0.005
   0.50000000  0.50000000 -0.36708195       0.005
   0.50000000  0.50000000 -0.38923495       0.005
   0.50000000  0.50000000 -0.41138796       0.005
   0.50000000  0.50000000 -0.43354097       0.005
   0.50000000  0.50000000 -0.45569398       0.005
   0.50000000  0.50000000 -0.47784699       0.005
   0.50000000  0.50000000 -0.50000000       0.005
   0.00000000  0.00000000  0.50000000       0.005
   0.01315789  0.01315789  0.48684211       0.005
   0.02631579  0.02631579  0.47368421       0.005
   0.03947368  0.03947368  0.46052632       0.005
   0.05263158  0.05263158  0.44736842       0.005
   0.06578947  0.06578947  0.43421053       0.005
   0.07894737  0.07894737  0.42105263       0.005
   0.09210526  0.09210526  0.40789474       0.005
   0.10526316  0.10526316  0.39473684       0.005
   0.11842105  0.11842105  0.38157895       0.005
   0.13157895  0.13157895  0.36842105       0.005
   0.14473684  0.14473684  0.35526316       0.005
   0.15789474  0.15789474  0.34210526       0.005
   0.17105263  0.17105263  0.32894737       0.005
   0.18421053  0.18421053  0.31578947       0.005
   0.19736842  0.19736842  0.30263158       0.005
   0.21052632  0.21052632  0.28947368       0.005
   0.22368421  0.22368421  0.27631579       0.005
   0.23684211  0.23684211  0.26315789       0.005
   0.25000000  0.25000000  0.25000000       0.005
 
 position of ions in fractional coordinates (direct lattice) 
   0.00000000  0.00000000  0.20799154
   0.50000000  0.50000000  0.70799154
   0.00000000  0.50000000  0.45799154
   0.50000000  0.00000000  0.95799154
   0.50000000  0.00000000  0.54200846
   0.00000000  0.50000000  0.04200846
   0.50000000  0.50000000  0.29200846
   0.00000000  0.00000000  0.79200846
   0.00000000  0.00000000  0.00000000
   0.50000000  0.50000000  0.50000000
   0.00000000  0.50000000  0.25000000
   0.50000000  0.00000000  0.75000000
 
 position of ions in cartesian coordinates  (Angst):
   0.00000000  0.00000000  2.00070101
   1.91549372  1.91549372  6.81027413
   0.00000000  1.91549372  4.40548757
   1.91549372  0.00000000  9.21506068
   1.91549372  0.00000000  5.21365866
   0.00000000  1.91549372  0.40408554
   1.91549372  1.91549372  2.80887210
   0.00000000  0.00000000  7.61844521
   0.00000000  0.00000000  0.00000000
   1.91549372  1.91549372  4.80957311
   0.00000000  1.91549372  2.40478656
   1.91549372  0.00000000  7.21435967
 


--------------------------------------------------------------------------------------------------------


 k-point  1 :   0.0000 0.0000 0.0000  plane waves:    4695
 k-point  2 :   0.0000 0.0000 0.0263  plane waves:    4699
 k-point  3 :   0.0000 0.0000 0.0526  plane waves:    4695
 k-point  4 :   0.0000 0.0000 0.0789  plane waves:    4711
 k-point  5 :   0.0000 0.0000 0.1053  plane waves:    4719
 k-point  6 :   0.0000 0.0000 0.1316  plane waves:    4723
 k-point  7 :   0.0000 0.0000 0.1579  plane waves:    4735
 k-point  8 :   0.0000 0.0000 0.1842  plane waves:    4727
 k-point  9 :   0.0000 0.0000 0.2105  plane waves:    4735
 k-point 10 :   0.0000 0.0000 0.2368  plane waves:    4734
 k-point 11 :   0.0000 0.0000 0.2632  plane waves:    4730
 k-point 12 :   0.0000 0.0000 0.2895  plane waves:    4730
 k-point 13 :   0.0000 0.0000 0.3158  plane waves:    4730
 k-point 14 :   0.0000 0.0000 0.3421  plane waves:    4714
 k-point 15 :   0.0000 0.0000 0.3684  plane waves:    4730
 k-point 16 :   0.0000 0.0000 0.3947  plane waves:    4718
 k-point 17 :   0.0000 0.0000 0.4211  plane waves:    4726
 k-point 18 :   0.0000 0.0000 0.4474  plane waves:    4710
 k-point 19 :   0.0000 0.0000 0.4737  plane waves:    4726
 k-point 20 :   0.0000 0.0000 0.5000  plane waves:    4726
 k-point 21 :   0.0000 0.0000 0.5000  plane waves:    4726
 k-point 22 :  -0.0042 0.0042 0.5000  plane waves:    4726
 k-point 23 :  -0.0083 0.0083 0.5000  plane waves:    4734
 k-point 24 :  -0.0125 0.0125 0.5000  plane waves:    4730
 k-point 25 :  -0.0167 0.0167 0.5000  plane waves:    4730
 k-point 26 :  -0.0208 0.0208 0.5000  plane waves:    4728
 k-point 27 :  -0.0250 0.0250 0.5000  plane waves:    4732
 k-point 28 :  -0.0291 0.0291 0.5000  plane waves:    4724
 k-point 29 :  -0.0333 0.0333 0.5000  plane waves:    4728
 k-point 30 :  -0.0375 0.0375 0.5000  plane waves:    4724
 k-point 31 :  -0.0416 0.0416 0.5000  plane waves:    4720
 k-point 32 :  -0.0458 0.0458 0.5000  plane waves:    4716
 k-point 33 :  -0.0500 0.0500 0.5000  plane waves:    4716
 k-point 34 :  -0.0541 0.0541 0.5000  plane waves:    4716
 k-point 35 :  -0.0583 0.0583 0.5000  plane waves:    4716
 k-point 36 :  -0.0624 0.0624 0.5000  plane waves:    4716
 k-point 37 :  -0.0666 0.0666 0.5000  plane waves:    4712
 k-point 38 :  -0.0708 0.0708 0.5000  plane waves:    4720
 k-point 39 :  -0.0749 0.0749 0.5000  plane waves:    4716
 k-point 40 :  -0.0791 0.0791 0.5000  plane waves:    4716
 k-point 41 :  -0.0791 0.0791 0.5000  plane waves:    4716
 k-point 42 :  -0.0902 0.0902 0.4889  plane waves:    4714
 k-point 43 :  -0.1012 0.1012 0.4778  plane waves:    4710
 k-point 44 :  -0.1123 0.1123 0.4668  plane waves:    4709
 k-point 45 :  -0.1234 0.1234 0.4557  plane waves:    4706
 k-point 46 :  -0.1345 0.1345 0.4446  plane waves:    4716
 k-point 47 :  -0.1456 0.1456 0.4335  plane waves:    4724
 k-point 48 :  -0.1566 0.1566 0.4225  plane waves:    4724
 k-point 49 :  -0.1677 0.1677 0.4114  plane waves:    4722
 k-point 50 :  -0.1788 0.1788 0.4003  plane waves:    4725
 k-point 51 :  -0.1899 0.1899 0.3892  plane waves:    4722
 k-point 52 :  -0.2009 0.2009 0.3782  plane waves:    4717
 k-point 53 :  -0.2120 0.2120 0.3671  plane waves:    4727
 k-point 54 :  -0.2231 0.2231 0.3560  plane waves:    4723
 k-point 55 :  -0.2342 0.2342 0.3449  plane waves:    4727
 k-point 56 :  -0.2452 0.2452 0.3339  plane waves:    4721
 k-point 57 :  -0.2563 0.2563 0.3228  plane waves:    4714
 k-point 58 :  -0.2674 0.2674 0.3117  plane waves:    4717
 k-point 59 :  -0.2785 0.2785 0.3006  plane waves:    4710
 k-point 60 :  -0.2895 0.2895 0.2895  plane waves:    4709
 k-point 61 :  -0.2895 0.2895 0.2895  plane waves:    4709
 k-point 62 :  -0.2743 0.2743 0.2743  plane waves:    4712
 k-point 63 :  -0.2591 0.2591 0.2591  plane waves:    4721
 k-point 64 :  -0.2438 0.2438 0.2438  plane waves:    4719
 k-point 65 :  -0.2286 0.2286 0.2286  plane waves:    4722
 k-point 66 :  -0.2133 0.2133 0.2133  plane waves:    4715
 k-point 67 :  -0.1981 0.1981 0.1981  plane waves:    4723
 k-point 68 :  -0.1829 0.1829 0.1829  plane waves:    4725
 k-point 69 :  -0.1676 0.1676 0.1676  plane waves:    4729
 k-point 70 :  -0.1524 0.1524 0.1524  plane waves:    4726
 k-point 71 :  -0.1372 0.1372 0.1372  plane waves:    4728
 k-point 72 :  -0.1219 0.1219 0.1219  plane waves:    4729
 k-point 73 :  -0.1067 0.1067 0.1067  plane waves:    4717
 k-point 74 :  -0.0914 0.0914 0.0914  plane waves:    4710
 k-point 75 :  -0.0762 0.0762 0.0762  plane waves:    4718
 k-point 76 :  -0.0610 0.0610 0.0610  plane waves:    4713
 k-point 77 :  -0.0457 0.0457 0.0457  plane waves:    4713
 k-point 78 :  -0.0305 0.0305 0.0305  plane waves:    4715
 k-point 79 :  -0.0152 0.0152 0.0152  plane waves:    4714
 k-point 80 :   0.0000 0.0000 0.0000  plane waves:    4695
 k-point 81 :   0.0000 0.0000 0.0000  plane waves:    4695
 k-point 82 :   0.0263 0.0263-0.0263  plane waves:    4717
 k-point 83 :   0.0526 0.0526-0.0526  plane waves:    4711
 k-point 84 :   0.0789 0.0789-0.0789  plane waves:    4714
 k-point 85 :   0.1053 0.1053-0.1053  plane waves:    4717
 k-point 86 :   0.1316 0.1316-0.1316  plane waves:    4736
 k-point 87 :   0.1579 0.1579-0.1579  plane waves:    4727
 k-point 88 :   0.1842 0.1842-0.1842  plane waves:    4722
 k-point 89 :   0.2105 0.2105-0.2105  plane waves:    4715
 k-point 90 :   0.2368 0.2368-0.2368  plane waves:    4720
 k-point 91 :   0.2632 0.2632-0.2632  plane waves:    4716
 k-point 92 :   0.2895 0.2895-0.2895  plane waves:    4709
 k-point 93 :   0.3158 0.3158-0.3158  plane waves:    4702
 k-point 94 :   0.3421 0.3421-0.3421  plane waves:    4698
 k-point 95 :   0.3684 0.3684-0.3684  plane waves:    4698
 k-point 96 :   0.3947 0.3947-0.3947  plane waves:    4716
 k-point 97 :   0.4211 0.4211-0.4211  plane waves:    4711
 k-point 98 :   0.4474 0.4474-0.4474  plane waves:    4718
 k-point 99 :   0.4737 0.4737-0.4737  plane waves:    4708
 k-point ** :   0.5000 0.5000-0.5000  plane waves:    4704
 k-point ** :   0.5000 0.5000-0.5000  plane waves:    4704
 k-point ** :   0.4889 0.5111-0.4889  plane waves:    4692
 k-point ** :   0.4778 0.5222-0.4778  plane waves:    4707
 k-point ** :   0.4668 0.5332-0.4668  plane waves:    4710
 k-point ** :   0.4557 0.5443-0.4557  plane waves:    4716
 k-point ** :   0.4446 0.5554-0.4446  plane waves:    4716
 k-point ** :   0.4335 0.5665-0.4335  plane waves:    4712
 k-point ** :   0.4225 0.5775-0.4225  plane waves:    4713
 k-point ** :   0.4114 0.5886-0.4114  plane waves:    4713
 k-point ** :   0.4003 0.5997-0.4003  plane waves:    4717
 k-point ** :   0.3892 0.6108-0.3892  plane waves:    4705
 k-point ** :   0.3782 0.6218-0.3782  plane waves:    4701
 k-point ** :   0.3671 0.6329-0.3671  plane waves:    4698
 k-point ** :   0.3560 0.6440-0.3560  plane waves:    4702
 k-point ** :   0.3449 0.6551-0.3449  plane waves:    4700
 k-point ** :   0.3339 0.6661-0.3339  plane waves:    4704
 k-point ** :   0.3228 0.6772-0.3228  plane waves:    4695
 k-point ** :   0.3117 0.6883-0.3117  plane waves:    4698
 k-point ** :   0.3006 0.6994-0.3006  plane waves:    4701
 k-point ** :   0.2895 0.7105-0.2895  plane waves:    4709
 k-point ** :   0.2895 0.7105-0.2895  plane waves:    4709
 k-point ** :   0.2743 0.6994-0.2743  plane waves:    4706
 k-point ** :   0.2591 0.6883-0.2591  plane waves:    4707
 k-point ** :   0.2438 0.6772-0.2438  plane waves:    4703
 k-point ** :   0.2286 0.6661-0.2286  plane waves:    4704
 k-point ** :   0.2133 0.6551-0.2133  plane waves:    4700
 k-point ** :   0.1981 0.6440-0.1981  plane waves:    4695
 k-point ** :   0.1829 0.6329-0.1829  plane waves:    4697
 k-point ** :   0.1676 0.6218-0.1676  plane waves:    4704
 k-point ** :   0.1524 0.6108-0.1524  plane waves:    4705
 k-point ** :   0.1372 0.5997-0.1372  plane waves:    4707
 k-point ** :   0.1219 0.5886-0.1219  plane waves:    4706
 k-point ** :   0.1067 0.5775-0.1067  plane waves:    4715
 k-point ** :   0.0914 0.5665-0.0914  plane waves:    4722
 k-point ** :   0.0762 0.5554-0.0762  plane waves:    4730
 k-point ** :   0.0610 0.5443-0.0610  plane waves:    4731
 k-point ** :   0.0457 0.5332-0.0457  plane waves:    4731
 k-point ** :   0.0305 0.5222-0.0305  plane waves:    4728
 k-point ** :   0.0152 0.5111-0.0152  plane waves:    4723
 k-point ** :   0.0000 0.5000 0.0000  plane waves:    4728
 k-point ** :   0.0000 0.5000 0.0000  plane waves:    4728
 k-point ** :   0.0132 0.4868 0.0132  plane waves:    4724
 k-point ** :   0.0263 0.4737 0.0263  plane waves:    4724
 k-point ** :   0.0395 0.4605 0.0395  plane waves:    4728
 k-point ** :   0.0526 0.4474 0.0526  plane waves:    4729
 k-point ** :   0.0658 0.4342 0.0658  plane waves:    4728
 k-point ** :   0.0789 0.4211 0.0789  plane waves:    4725
 k-point ** :   0.0921 0.4079 0.0921  plane waves:    4723
 k-point ** :   0.1053 0.3947 0.1053  plane waves:    4714
 k-point ** :   0.1184 0.3816 0.1184  plane waves:    4713
 k-point ** :   0.1316 0.3684 0.1316  plane waves:    4712
 k-point ** :   0.1447 0.3553 0.1447  plane waves:    4708
 k-point ** :   0.1579 0.3421 0.1579  plane waves:    4707
 k-point ** :   0.1711 0.3289 0.1711  plane waves:    4707
 k-point ** :   0.1842 0.3158 0.1842  plane waves:    4710
 k-point ** :   0.1974 0.3026 0.1974  plane waves:    4710
 k-point ** :   0.2105 0.2895 0.2105  plane waves:    4711
 k-point ** :   0.2237 0.2763 0.2237  plane waves:    4715
 k-point ** :   0.2368 0.2632 0.2368  plane waves:    4715
 k-point ** :   0.2500 0.2500 0.2500  plane waves:    4725
 k-point ** :   0.2500 0.2500 0.2500  plane waves:    4725
 k-point ** :   0.2632 0.2632 0.2327  plane waves:    4714
 k-point ** :   0.2763 0.2763 0.2154  plane waves:    4709
 k-point ** :   0.2895 0.2895 0.1980  plane waves:    4703
 k-point ** :   0.3026 0.3026 0.1807  plane waves:    4693
 k-point ** :   0.3158 0.3158 0.1634  plane waves:    4691
 k-point ** :   0.3289 0.3289 0.1461  plane waves:    4688
 k-point ** :   0.3421 0.3421 0.1288  plane waves:    4694
 k-point ** :   0.3553 0.3553 0.1114  plane waves:    4689
 k-point ** :   0.3684 0.3684 0.0941  plane waves:    4690
 k-point ** :   0.3816 0.3816 0.0768  plane waves:    4696
 k-point ** :   0.3947 0.3947 0.0595  plane waves:    4694
 k-point ** :   0.4079 0.4079 0.0422  plane waves:    4695
 k-point ** :   0.4211 0.4211 0.0248  plane waves:    4700
 k-point ** :   0.4342 0.4342 0.0075  plane waves:    4706
 k-point ** :   0.4474 0.4474-0.0098  plane waves:    4706
 k-point ** :   0.4605 0.4605-0.0271  plane waves:    4704
 k-point ** :   0.4737 0.4737-0.0445  plane waves:    4691
 k-point ** :   0.4868 0.4868-0.0618  plane waves:    4693
 k-point ** :   0.5000 0.5000-0.0791  plane waves:    4680
 k-point ** :   0.5000 0.5000-0.0791  plane waves:    4680
 k-point ** :   0.5000 0.5000-0.1012  plane waves:    4680
 k-point ** :   0.5000 0.5000-0.1234  plane waves:    4672
 k-point ** :   0.5000 0.5000-0.1456  plane waves:    4668
 k-point ** :   0.5000 0.5000-0.1677  plane waves:    4668
 k-point ** :   0.5000 0.5000-0.1899  plane waves:    4684
 k-point ** :   0.5000 0.5000-0.2120  plane waves:    4700
 k-point ** :   0.5000 0.5000-0.2342  plane waves:    4692
 k-point ** :   0.5000 0.5000-0.2563  plane waves:    4700
 k-point ** :   0.5000 0.5000-0.2785  plane waves:    4700
 k-point ** :   0.5000 0.5000-0.3006  plane waves:    4692
 k-point ** :   0.5000 0.5000-0.3228  plane waves:    4692
 k-point ** :   0.5000 0.5000-0.3449  plane waves:    4704
 k-point ** :   0.5000 0.5000-0.3671  plane waves:    4708
 k-point ** :   0.5000 0.5000-0.3892  plane waves:    4708
 k-point ** :   0.5000 0.5000-0.4114  plane waves:    4708
 k-point ** :   0.5000 0.5000-0.4335  plane waves:    4708
 k-point ** :   0.5000 0.5000-0.4557  plane waves:    4708
 k-point ** :   0.5000 0.5000-0.4778  plane waves:    4712
 k-point ** :   0.5000 0.5000-0.5000  plane waves:    4704
 k-point ** :   0.0000 0.0000 0.5000  plane waves:    4726
 k-point ** :   0.0132 0.0132 0.4868  plane waves:    4724
 k-point ** :   0.0263 0.0263 0.4737  plane waves:    4724
 k-point ** :   0.0395 0.0395 0.4605  plane waves:    4720
 k-point ** :   0.0526 0.0526 0.4474  plane waves:    4722
 k-point ** :   0.0658 0.0658 0.4342  plane waves:    4712
 k-point ** :   0.0789 0.0789 0.4211  plane waves:    4716
 k-point ** :   0.0921 0.0921 0.4079  plane waves:    4706
 k-point ** :   0.1053 0.1053 0.3947  plane waves:    4701
 k-point ** :   0.1184 0.1184 0.3816  plane waves:    4714
 k-point ** :   0.1316 0.1316 0.3684  plane waves:    4713
 k-point ** :   0.1447 0.1447 0.3553  plane waves:    4712
 k-point ** :   0.1579 0.1579 0.3421  plane waves:    4715
 k-point ** :   0.1711 0.1711 0.3289  plane waves:    4724
 k-point ** :   0.1842 0.1842 0.3158  plane waves:    4717
 k-point ** :   0.1974 0.1974 0.3026  plane waves:    4721
 k-point ** :   0.2105 0.2105 0.2895  plane waves:    4723
 k-point ** :   0.2237 0.2237 0.2763  plane waves:    4726
 k-point ** :   0.2368 0.2368 0.2632  plane waves:    4720
 k-point ** :   0.2500 0.2500 0.2500  plane waves:    4725

 maximum and minimum number of plane-waves per node :      4736     4668

 maximum number of plane-waves:      4736
 maximum index in each direction: 
   IXMAX=    7   IYMAX=    7   IZMAX=   19
   IXMIN=   -8   IYMIN=   -8   IZMIN=  -19

 NGX is ok and might be reduce to  32
 NGY is ok and might be reduce to  32
 NGZ is ok and might be reduce to  78

 serial   3D FFT for wavefunctions
 parallel 3D FFT for charge:
    minimum data exchange during FFTs selected (reduces bandwidth)


 total amount of memory used by VASP on root node   361890. kBytes
========================================================================

   base      :      30000. kBytes
   nonl-proj :     252241. kBytes
   fftplans  :       1330. kBytes
   grid      :       9068. kBytes
   one-center:        259. kBytes
   wavefun   :      68992. kBytes
 
     INWAV:  cpu time   11.2830: real time   11.3158
 initial charge density was supplied:
 number of electron      64.0000014 magnetization       0.0004440
 keeping initial charge density in first step


--------------------------------------------------------------------------------------------------------


 Maximum index for augmentation-charges         2572 (set IRDMAX)


--------------------------------------------------------------------------------------------------------


 First call to EWALD:  gamma=   0.340
 Maximum number of real-space cells 4x 4x 2
 Maximum number of reciprocal cells 2x 2x 5

 FEWALD executed in parallel
    FEWALD:  cpu time    0.0013: real time    0.0013


----------------------------------------- Iteration    1(   1)  ---------------------------------------


    POTLOK:  cpu time    0.0437: real time    0.0438
    SETDIJ:  cpu time    0.0117: real time    0.0117
     EDDAV:  cpu time   32.9442: real time   33.0127
       DOS:  cpu time    0.0050: real time    0.0050
    --------------------------------------------
      LOOP:  cpu time   33.0059: real time   33.0964

 eigenvalue-minimisations  : 56812
 total energy-change (2. order) :-0.9741030E+02  (-0.8776531E+02)
 number of electron      64.0000014 magnetization       0.0004440
 augmentation part       64.0000014 magnetization       0.0004440

 Free energy of the ion-electron system (eV)
  ---------------------------------------------------
  alpha Z        PSCENC =       243.75862619
  Ewald energy   TEWEN  =     -2912.24672113
  -Hartree energ DENC   =     -1155.30899057
  -exchange      EXHF   =         0.00000000
  -V(xc)+E(xc)   XCENC  =        84.52436354
  PAW double counting   =      5963.75102711    -5818.24802822
  entropy T*S    EENTRO =        -0.00000000
  eigenvalues    EBANDS =      -341.70722729
  atomic energy  EATOM  =      3838.06664596
  Solvation  Ediel_sol  =         0.00000000
  ---------------------------------------------------
  free energy    TOTEN  =       -97.41030440 eV

  energy without entropy =      -97.41030440  energy(sigma->0) =      -97.41030440


--------------------------------------------------------------------------------------------------------




----------------------------------------- Iteration    1(   2)  ---------------------------------------


     EDDAV:  cpu time   35.0990: real time   35.1661
       DOS:  cpu time    0.0049: real time    0.0049
    --------------------------------------------
      LOOP:  cpu time   35.1045: real time   35.2104

 eigenvalue-minimisations  : 61208
 total energy-change (2. order) :-0.6585593E+01  (-0.6566093E+01)
 number of electron      64.0000014 magnetization       0.0004440
 augmentation part       64.0000014 magnetization       0.0004440

 Free energy of the ion-electron system (eV)
  ---------------------------------------------------
  alpha Z        PSCENC =       243.75862619
  Ewald energy   TEWEN  =     -2912.24672113
  -Hartree energ DENC   =     -1155.30899057
  -exchange      EXHF   =         0.00000000
  -V(xc)+E(xc)   XCENC  =        84.52436354
  PAW double counting   =      5963.75102711    -5818.24802822
  entropy T*S    EENTRO =        -0.00000000
  eigenvalues    EBANDS =      -348.29282004
  atomic energy  EATOM  =      3838.06664596
  Solvation  Ediel_sol  =         0.00000000
  ---------------------------------------------------
  free energy    TOTEN  =      -103.99589715 eV

  energy without entropy =     -103.99589715  energy(sigma->0) =     -103.99589715


--------------------------------------------------------------------------------------------------------




----------------------------------------- Iteration    1(   3)  ---------------------------------------


     EDDAV:  cpu time   33.3733: real time   33.4808
       DOS:  cpu time    0.0049: real time    0.0049
    --------------------------------------------
      LOOP:  cpu time   33.3787: real time   33.5286

 eigenvalue-minimisations  : 58016
 total energy-change (2. order) :-0.3604358E-01  (-0.3604017E-01)
 number of electron      64.0000014 magnetization       0.0004440
 augmentation part       64.0000014 magnetization       0.0004440

 Free energy of the ion-electron system (eV)
  ---------------------------------------------------
  alpha Z        PSCENC =       243.75862619
  Ewald energy   TEWEN  =     -2912.24672113
  -Hartree energ DENC   =     -1155.30899057
  -exchange      EXHF   =         0.00000000
  -V(xc)+E(xc)   XCENC  =        84.52436354
  PAW double counting   =      5963.75102711    -5818.24802822
  entropy T*S    EENTRO =        -0.00000000
  eigenvalues    EBANDS =      -348.32886362
  atomic energy  EATOM  =      3838.06664596
  Solvation  Ediel_sol  =         0.00000000
  ---------------------------------------------------
  free energy    TOTEN  =      -104.03194073 eV

  energy without entropy =     -104.03194073  energy(sigma->0) =     -104.03194073


--------------------------------------------------------------------------------------------------------




----------------------------------------- Iteration    1(   4)  ---------------------------------------


     EDDAV:  cpu time   34.6636: real time   34.7990
       DOS:  cpu time    0.0049: real time    0.0049
    --------------------------------------------
      LOOP:  cpu time   34.6691: real time   34.8482

 eigenvalue-minimisations  : 60620
 total energy-change (2. order) :-0.3377608E-03  (-0.3377372E-03)
 number of electron      64.0000014 magnetization       0.0004440
 augmentation part       64.0000014 magnetization       0.0004440

 Free energy of the ion-electron system (eV)
  ---------------------------------------------------
  alpha Z        PSCENC =       243.75862619
  Ewald energy   TEWEN  =     -2912.24672113
  -Hartree energ DENC   =     -1155.30899057
  -exchange      EXHF   =         0.00000000
  -V(xc)+E(xc)   XCENC  =        84.52436354
  PAW double counting   =      5963.75102711    -5818.24802822
  entropy T*S    EENTRO =        -0.00000000
  eigenvalues    EBANDS =      -348.32920138
  atomic energy  EATOM  =      3838.06664596
  Solvation  Ediel_sol  =         0.00000000
  ---------------------------------------------------
  free energy    TOTEN  =      -104.03227849 eV

  energy without entropy =     -104.03227849  energy(sigma->0) =     -104.03227849


--------------------------------------------------------------------------------------------------------




----------------------------------------- Iteration    1(   5)  ---------------------------------------


     EDDAV:  cpu time   33.1578: real time   33.2648
       DOS:  cpu time    0.0049: real time    0.0049
    --------------------------------------------
      LOOP:  cpu time   33.1635: real time   33.3675

 eigenvalue-minimisations  : 57680
 total energy-change (2. order) :-0.5600903E-05  (-0.5600886E-05)
 number of electron      64.0000014 magnetization       0.0004440
 augmentation part       64.0000014 magnetization       0.0004440

 Free energy of the ion-electron system (eV)
  ---------------------------------------------------
  alpha Z        PSCENC =       243.75862619
  Ewald energy   TEWEN  =     -2912.24672113
  -Hartree energ DENC   =     -1155.30899057
  -exchange      EXHF   =         0.00000000
  -V(xc)+E(xc)   XCENC  =        84.52436354
  PAW double counting   =      5963.75102711    -5818.24802822
  entropy T*S    EENTRO =        -0.00000000
  eigenvalues    EBANDS =      -348.32920698
  atomic energy  EATOM  =      3838.06664596
  Solvation  Ediel_sol  =         0.00000000
  ---------------------------------------------------
  free energy    TOTEN  =      -104.03228409 eV

  energy without entropy =     -104.03228409  energy(sigma->0) =     -104.03228409


--------------------------------------------------------------------------------------------------------




----------------------------------------- Iteration    1(   6)  ---------------------------------------


     EDDAV:  cpu time   35.1076: real time   35.2064
       DOS:  cpu time    0.0048: real time    0.0048
    --------------------------------------------
      LOOP:  cpu time   35.1131: real time   35.2526

 eigenvalue-minimisations  : 60424
 total energy-change (2. order) :-0.1230319E-06  (-0.1230142E-06)
 number of electron      64.0000014 magnetization       0.0004440
 augmentation part       64.0000014 magnetization       0.0004440

 Free energy of the ion-electron system (eV)
  ---------------------------------------------------
  alpha Z        PSCENC =       243.75862619
  Ewald energy   TEWEN  =     -2912.24672113
  -Hartree energ DENC   =     -1155.30899057
  -exchange      EXHF   =         0.00000000
  -V(xc)+E(xc)   XCENC  =        84.52436354
  PAW double counting   =      5963.75102711    -5818.24802822
  entropy T*S    EENTRO =        -0.00000000
  eigenvalues    EBANDS =      -348.32920710
  atomic energy  EATOM  =      3838.06664596
  Solvation  Ediel_sol  =         0.00000000
  ---------------------------------------------------
  free energy    TOTEN  =      -104.03228422 eV

  energy without entropy =     -104.03228422  energy(sigma->0) =     -104.03228422


--------------------------------------------------------------------------------------------------------




 average (electrostatic) potential at core
  the test charge radii are     0.7215  1.2598
  (the norm of the test charge is              1.0000)
       1 -73.3123       2 -73.3123       3 -73.3123       4 -73.3123       5 -73.3123
       6 -73.3123       7 -73.3123       8 -73.3123       9 -29.0401      10 -29.0401
      11 -29.0401      12 -29.0401
 
 
 
 E-fermi :   0.5698     XC(G=0): -10.3506     alpha+bet : -9.6267


 spin component 1

 k-point     1 :       0.0000    0.0000    0.0000
  band No.  band energies     occupation 
      1     -17.1013      1.00000
      2     -16.6124      1.00000
      3     -16.6124      1.00000
      4     -16.1035      1.00000
      5     -16.0886      1.00000
      6     -15.8818      1.00000
      7     -15.8818      1.00000
      8     -15.6403      1.00000
      9      -3.3826      1.00000
     10      -3.3198      1.00000
     11      -3.3198      1.00000
     12      -3.2356      1.00000
     13      -3.2356      1.00000
     14      -3.1466      1.00000
     15      -3.1466      1.00000
     16      -2.8833      1.00000
     17      -1.5662      1.00000
     18      -1.5662      1.00000
     19      -1.5406      1.00000
     20      -1.5098      1.00000
     21      -1.5098      1.00000
     22      -0.8488      1.00000
     23      -0.8488      1.00000
     24      -0.8044      1.00000
     25      -0.8044      1.00000
     26      -0.3149      1.00000
     27      -0.3149      1.00000
     28      -0.2920      1.00000
     29       0.0340      1.00000
     30       0.0340      1.00000
     31       0.3402      1.00000
     32       0.3402      1.00000
     33       2.3280      0.00000
     34       2.6507      0.00000
     35       2.6507      0.00000
     36       2.9928      0.00000
     37       3.8294      0.00000
     38       3.8294      0.00000
     39       4.0499      0.00000
     40       4.0499      0.00000
     41       4.1127      0.00000
     42       4.1127      0.00000
     43       4.3645      0.00000
     44       4.3645      0.00000
     45       4.8346      0.00000
     46       4.8346      0.00000
     47       4.9284      0.00000
     48       5.2021      0.00000
     49       5.2084      0.00000
     50       5.7548      0.00000
     51       5.7548      0.00000
     52       6.3701      0.00000
     53       7.7981      0.00000
     54       9.8760      0.00000
     55       9.8760      0.00000
     56      12.5281      0.00000

 k-point     2 :       0.0000    0.0000    0.0263
  band No.  band energies     occupation 
      1     -17.1009      1.00000
      2     -16.6326      1.00000
      3     -16.5922      1.00000
      4     -16.1050      1.00000
      5     -16.0874      1.00000
      6     -15.8904      1.00000
      7     -15.8732      1.00000
      8     -15.6405      1.00000
      9      -3.3821      1.00000
     10      -3.3196      1.00000
     11      -3.3196      1.00000
     12      -3.2357      1.00000
     13      -3.2357      1.00000
     14      -3.1482      1.00000
     15      -3.1451      1.00000
     16      -2.8844      1.00000
     17      -1.5662      1.00000
     18      -1.5662      1.00000
     19      -1.5389      1.00000
     20      -1.5099      1.00000
     21      -1.5099      1.00000
     22      -0.8547      1.00000
     23      -0.8430      1.00000
     24      -0.8038      1.00000
     25      -0.8038      1.00000
     26      -0.3165      1.00000
     27      -0.3165      1.00000
     28      -0.2931      1.00000
     29       0.0353      1.00000
     30       0.0353      1.00000
     31       0.3399      1.00000
     32       0.3399      1.00000
     33       2.3283      0.00000
     34       2.6370      0.00000
     35       2.6644      0.00000
     36       2.9925      0.00000
     37       3.8295      0.00000
     38       3.8295      0.00000
     39       4.0476      0.00000
     40       4.0476      0.00000
     41       4.1150      0.00000
     42       4.1150      0.00000
     43       4.3643      0.00000
     44       4.3643      0.00000
     45       4.8228      0.00000
     46       4.8469      0.00000
     47       4.9277      0.00000
     48       5.2016      0.00000
     49       5.2089      0.00000
     50       5.7243      0.00000
     51       5.7863      0.00000
     52       6.3710      0.00000
     53       7.7989      0.00000
     54       9.7874      0.00000
     55       9.9641      0.00000
     56      12.5216      0.00000

 k-point     3 :       0.0000    0.0000    0.0526
  band No.  band energies     occupation 
      1     -17.0996      1.00000
      2     -16.6527      1.00000
      3     -16.5721      1.00000
      4     -16.1086      1.00000
      5     -16.0847      1.00000
      6     -15.8988      1.00000
      7     -15.8644      1.00000
      8     -15.6412      1.00000
      9      -3.3805      1.00000
     10      -3.3192      1.00000
     11      -3.3192      1.00000
     12      -3.2362      1.00000
     13      -3.2362      1.00000
     14      -3.1499      1.00000
     15      -3.1439      1.00000
     16      -2.8876      1.00000
     17      -1.5660      1.00000
     18      -1.5660      1.00000
     19      -1.5335      1.00000
     20      -1.5103      1.00000
     21      -1.5103      1.00000
     22      -0.8608      1.00000
     23      -0.8371      1.00000
     24      -0.8019      1.00000
     25      -0.8019      1.00000
     26      -0.3211      1.00000
     27      -0.3211      1.00000
     28      -0.2965      1.00000
     29       0.0391      1.00000
     30       0.0391      1.00000
     31       0.3391      1.00000
     32       0.3391      1.00000
     33       2.3291      0.00000
     34       2.6233      0.00000
     35       2.6782      0.00000
     36       2.9916      0.00000
     37       3.8299      0.00000
     38       3.8299      0.00000
     39       4.0417      0.00000
     40       4.0417      0.00000
     41       4.1210      0.00000
     42       4.1210      0.00000
     43       4.3637      0.00000
     44       4.3637      0.00000
     45       4.8115      0.00000
     46       4.8595      0.00000
     47       4.9254      0.00000
     48       5.2001      0.00000
     49       5.2106      0.00000
     50       5.6948      0.00000
     51       5.8187      0.00000
     52       6.3736      0.00000
     53       7.8013      0.00000
     54       9.6984      0.00000
     55      10.0516      0.00000
     56      12.5026      0.00000

 k-point     4 :       0.0000    0.0000    0.0789
  band No.  band energies     occupation 
      1     -17.0975      1.00000
      2     -16.6728      1.00000
      3     -16.5521      1.00000
      4     -16.1133      1.00000
      5     -16.0813      1.00000
      6     -15.9071      1.00000
      7     -15.8556      1.00000
      8     -15.6424      1.00000
      9      -3.3778      1.00000
     10      -3.3186      1.00000
     11      -3.3186      1.00000
     12      -3.2369      1.00000
     13      -3.2369      1.00000
     14      -3.1516      1.00000
     15      -3.1432      1.00000
     16      -2.8931      1.00000
     17      -1.5656      1.00000
     18      -1.5656      1.00000
     19      -1.5247      1.00000
     20      -1.5110      1.00000
     21      -1.5110      1.00000
     22      -0.8673      1.00000
     23      -0.8309      1.00000
     24      -0.7987      1.00000
     25      -0.7987      1.00000
     26      -0.3286      1.00000
     27      -0.3286      1.00000
     28      -0.3024      1.00000
     29       0.0452      1.00000
     30       0.0452      1.00000
     31       0.3377      1.00000
     32       0.3377      1.00000
     33       2.3304      0.00000
     34       2.6098      0.00000
     35       2.6919      0.00000
     36       2.9901      0.00000
     37       3.8307      0.00000
     38       3.8307      0.00000
     39       4.0335      0.00000
     40       4.0335      0.00000
     41       4.1294      0.00000
     42       4.1294      0.00000
     43       4.3626      0.00000
     44       4.3626      0.00000
[...]
     38       3.5316      0.00000
     39       3.6820      0.00000
     40       3.7215      0.00000
     41       3.8542      0.00000
     42       3.9320      0.00000
     43       4.0162      0.00000
     44       4.1895      0.00000
     45       5.5532      0.00000
     46       5.5544      0.00000
     47       6.0354      0.00000
     48       6.2720      0.00000
     49       6.4864      0.00000
     50       6.6402      0.00000
     51       6.8278      0.00000
     52       6.8542      0.00000
     53       9.2768      0.00000
     54       9.8833      0.00000
     55      11.4789      0.00000
     56      12.5260      0.00000

 k-point   218 :       0.2237    0.2237    0.2763
  band No.  band energies     occupation 
      1     -16.6936      1.00000
      2     -16.5004      1.00000
      3     -16.1765      1.00000
      4     -15.9989      1.00000
      5     -15.9041      1.00000
      6     -15.8476      1.00000
      7     -15.7171      1.00000
      8     -15.6219      1.00000
      9      -3.9524      1.00000
     10      -3.9277      1.00000
     11      -3.8110      1.00000
     12      -3.7353      1.00000
     13      -3.3695      1.00000
     14      -2.9793      1.00000
     15      -2.9725      1.00000
     16      -2.8336      1.00000
     17      -2.4082      1.00000
     18      -2.2908      1.00000
     19      -1.8879      1.00000
     20      -1.8668      1.00000
     21      -1.6971      1.00000
     22      -1.5776      1.00000
     23      -1.5629      1.00000
     24      -1.3592      1.00000
     25      -1.1866      1.00000
     26      -0.8421      1.00000
     27      -0.5572      1.00000
     28      -0.4121      1.00000
     29      -0.2629      1.00000
     30      -0.1265      1.00000
     31       0.1400      1.00000
     32       0.2052      1.00000
     33       3.0765      0.00000
     34       3.1097      0.00000
     35       3.3097      0.00000
     36       3.3137      0.00000
     37       3.5203      0.00000
     38       3.5391      0.00000
     39       3.6786      0.00000
     40       3.7203      0.00000
     41       3.8816      0.00000
     42       3.9781      0.00000
     43       4.0530      0.00000
     44       4.2339      0.00000
     45       5.5954      0.00000
     46       5.6009      0.00000
     47       6.0727      0.00000
     48       6.3388      0.00000
     49       6.5862      0.00000
     50       6.7384      0.00000
     51       6.8516      0.00000
     52       6.9114      0.00000
     53       9.4162      0.00000
     54      10.0256      0.00000
     55      11.5197      0.00000
     56      12.6103      0.00000

 k-point   219 :       0.2368    0.2368    0.2632
  band No.  band energies     occupation 
      1     -16.6579      1.00000
      2     -16.4600      1.00000
      3     -16.1607      1.00000
      4     -15.9800      1.00000
      5     -15.8900      1.00000
      6     -15.8332      1.00000
      7     -15.7136      1.00000
      8     -15.6166      1.00000
      9      -3.9907      1.00000
     10      -3.9623      1.00000
     11      -3.8514      1.00000
     12      -3.7657      1.00000
     13      -3.3859      1.00000
     14      -2.9737      1.00000
     15      -2.9535      1.00000
     16      -2.8111      1.00000
     17      -2.4718      1.00000
     18      -2.3373      1.00000
     19      -1.9595      1.00000
     20      -1.9528      1.00000
     21      -1.7840      1.00000
     22      -1.6767      1.00000
     23      -1.6722      1.00000
     24      -1.4587      1.00000
     25      -1.2168      1.00000
     26      -0.8851      1.00000
     27      -0.5215      1.00000
     28      -0.4524      1.00000
     29      -0.2159      1.00000
     30      -0.1207      1.00000
     31       0.1647      1.00000
     32       0.2049      1.00000
     33       3.0820      0.00000
     34       3.1199      0.00000
     35       3.3048      0.00000
     36       3.3334      0.00000
     37       3.5483      0.00000
     38       3.5633      0.00000
     39       3.6776      0.00000
     40       3.7257      0.00000
     41       3.9221      0.00000
     42       4.0325      0.00000
     43       4.0963      0.00000
     44       4.2811      0.00000
     45       5.6361      0.00000
     46       5.6486      0.00000
     47       6.1055      0.00000
     48       6.4014      0.00000
     49       6.6826      0.00000
     50       6.8314      0.00000
     51       6.8729      0.00000
     52       6.9678      0.00000
     53       9.5607      0.00000
     54      10.1692      0.00000
     55      11.5629      0.00000
     56      12.6903      0.00000

 k-point   220 :       0.2500    0.2500    0.2500
  band No.  band energies     occupation 
      1     -16.6209      1.00000
      2     -16.4192      1.00000
      3     -16.1443      1.00000
      4     -15.9613      1.00000
      5     -15.8760      1.00000
      6     -15.8189      1.00000
      7     -15.7099      1.00000
      8     -15.6118      1.00000
      9      -4.0259      1.00000
     10      -3.9937      1.00000
     11      -3.8896      1.00000
     12      -3.7942      1.00000
     13      -3.4036      1.00000
     14      -2.9779      1.00000
     15      -2.9273      1.00000
     16      -2.7873      1.00000
     17      -2.5329      1.00000
     18      -2.3809      1.00000
     19      -2.0561      1.00000
     20      -2.0224      1.00000
     21      -1.8664      1.00000
     22      -1.7851      1.00000
     23      -1.7771      1.00000
     24      -1.5605      1.00000
     25      -1.2491      1.00000
     26      -0.9287      1.00000
     27      -0.4956      1.00000
     28      -0.4787      1.00000
     29      -0.1671      1.00000
     30      -0.1237      1.00000
     31       0.1876      1.00000
     32       0.2056      1.00000
     33       3.0917      0.00000
     34       3.1340      0.00000
     35       3.3052      0.00000
     36       3.3486      0.00000
     37       3.5589      0.00000
     38       3.5889      0.00000
     39       3.6795      0.00000
     40       3.7388      0.00000
     41       3.9747      0.00000
     42       4.0925      0.00000
     43       4.1447      0.00000
     44       4.3302      0.00000
     45       5.6767      0.00000
     46       5.6964      0.00000
     47       6.1344      0.00000
     48       6.4599      0.00000
     49       6.7750      0.00000
     50       6.8915      0.00000
     51       6.9186      0.00000
     52       7.0224      0.00000
     53       9.7094      0.00000
     54      10.3135      0.00000
     55      11.6081      0.00000
     56      12.7630      0.00000


--------------------------------------------------------------------------------------------------------


 soft charge-density along one line, spin component           1
         0         1         2         3         4         5         6         7         8         9
 total charge-density along one line
 
 soft charge-density along one line, spin component           2
         0         1         2         3         4         5         6         7         8         9
 total charge-density along one line
 
 pseudopotential strength for first ion, spin component:           1
 12.672 -15.457   0.000   0.017   0.000  -0.000  -0.021  -0.000
-15.457  18.877  -0.000  -0.022  -0.000   0.000   0.027   0.000
  0.000  -0.000  -9.012  -0.000  -0.000  10.928   0.000   0.000
  0.017  -0.022  -0.000  -8.974   0.000   0.000  10.877  -0.000
  0.000  -0.000  -0.000   0.000  -8.945   0.000  -0.000  10.839
 -0.000   0.000  10.928   0.000   0.000 -13.121  -0.000  -0.000
 -0.021   0.027   0.000  10.877  -0.000  -0.000 -13.053   0.000
 -0.000   0.000   0.000  -0.000  10.839  -0.000   0.000 -13.002
 pseudopotential strength for first ion, spin component:           2
 12.672 -15.457   0.000   0.017  -0.000  -0.000  -0.021  -0.000
-15.457  18.877  -0.000  -0.022   0.000   0.000   0.027  -0.000
  0.000  -0.000  -9.012  -0.000  -0.000  10.928   0.000   0.000
  0.017  -0.022  -0.000  -8.974   0.000   0.000  10.878  -0.000
 -0.000   0.000  -0.000   0.000  -8.945   0.000  -0.000  10.839
 -0.000   0.000  10.928   0.000   0.000 -13.121  -0.000  -0.000
 -0.021   0.027   0.000  10.878  -0.000  -0.000 -13.053   0.000
 -0.000  -0.000   0.000  -0.000  10.839  -0.000   0.000 -13.002
 total augmentation occupancy for first ion, spin component:           1
  2.000   0.000   0.000   0.000   0.000   0.000   0.000   0.000
  0.000   0.000   0.000   0.000   0.000   0.000   0.000   0.000
  0.000   0.000   1.333   0.000   0.000   0.000   0.000   0.000
  0.000   0.000   0.000   1.333   0.000   0.000   0.000   0.000
  0.000   0.000   0.000   0.000   1.333   0.000   0.000   0.000
  0.000   0.000   0.000   0.000   0.000   0.000   0.000   0.000
  0.000   0.000   0.000   0.000   0.000   0.000   0.000   0.000
  0.000   0.000   0.000   0.000   0.000   0.000   0.000   0.000
 total augmentation occupancy for first ion, spin component:           2
  0.333   0.000   0.000   0.000   0.000   0.000   0.000   0.000
  0.000   0.000   0.000   0.000   0.000   0.000   0.000   0.000
  0.000   0.000   0.222   0.000   0.000   0.000   0.000   0.000
  0.000   0.000   0.000   0.222   0.000   0.000   0.000   0.000
  0.000   0.000   0.000   0.000   0.222   0.000   0.000   0.000
  0.000   0.000   0.000   0.000   0.000   0.000   0.000   0.000
  0.000   0.000   0.000   0.000   0.000   0.000   0.000   0.000
  0.000   0.000   0.000   0.000   0.000   0.000   0.000   0.000


------------------------ aborting loop because EDIFF is reached ----------------------------------------


 


 total charge     
 
# of ion     s       p       d       tot
----------------------------------------
  1        1.569   3.472   0.000   5.042
  2        1.569   3.472   0.000   5.042
  3        1.563   3.523   0.000   5.087
  4        1.563   3.523   0.000   5.087
  5        1.569   3.472   0.000   5.042
  6        1.569   3.472   0.000   5.042
  7        1.563   3.523   0.000   5.087
  8        1.563   3.523   0.000   5.087
  9        0.531   1.053   2.515   4.100
 10        0.531   1.053   2.515   4.100
 11        0.531   1.053   2.515   4.100
 12        0.531   1.053   2.515   4.100
------------------------------------------------
tot       14.657  32.195  10.061  56.913
 


 magnetization (x)
 
# of ion     s       p       d       tot
----------------------------------------
  1       -0.000  -0.000   0.000  -0.000
  2       -0.000  -0.000   0.000  -0.000
  3       -0.000  -0.000   0.000  -0.000
  4       -0.000  -0.000   0.000  -0.000
  5       -0.000  -0.000   0.000  -0.000
  6       -0.000  -0.000   0.000  -0.000
  7       -0.000  -0.000   0.000  -0.000
  8       -0.000  -0.000   0.000  -0.000
  9        0.000   0.000   0.000   0.000
 10        0.000   0.000   0.000   0.000
 11        0.000   0.000   0.000   0.000
 12        0.000   0.000   0.000   0.000
------------------------------------------------
tot       -0.000  -0.000   0.000  -0.000
 
    CHARGE:  cpu time    1.1650: real time    1.1645
    FORLOC:  cpu time    0.0019: real time    0.0019
    FORNL :  cpu time    4.3223: real time    4.3200
    STRESS:  cpu time   11.9263: real time   11.9688
    FORCOR:  cpu time    0.0366: real time    0.0365
    FORHAR:  cpu time    0.0051: real time    0.0051
    OFIELD:  cpu time    0.0002: real time    0.0002

  FORCE on cell =-STRESS in cart. coord.  units (eV):
  Direction    XX          YY          ZZ          XY          YZ          ZX
  --------------------------------------------------------------------------------------
  Alpha Z   243.75863   243.75863   243.75863
  Ewald   -1025.95363 -1025.95363  -860.34575     0.00000     0.00000     0.00000
  Hartree   367.85684   367.85684   432.77143    -0.00000    -0.00000    -0.00000
  E(xc)    -305.42226  -305.42226  -306.31743     0.00000     0.00000     0.00000
  Local    -322.18932  -322.18932  -547.52438    -0.00000     0.00000     0.00000
  n-local  -186.82722  -189.38257  -189.06171     0.00079     0.00886    -0.00473
  augment    73.89789    73.89789    74.36376    -0.00000     0.00000     0.00000
  Kinetic  1165.11007  1161.31684  1158.83359     0.12151    -0.03203     0.00499
  Fock        0.00000     0.00000     0.00000     0.00000     0.00000     0.00000
  -------------------------------------------------------------------------------------
  Total       7.05671     7.05671     6.47814     0.00000     0.00000     0.00000
  in kB      80.08572    80.08572    73.51959     0.00000     0.00000     0.00000
  external pressure =       77.90 kB  Pullay stress =        0.00 kB


 VOLUME and BASIS-vectors are now :
 -----------------------------------------------------------------------------
  energy-cutoff  :      600.00
  volume of cell :      141.18
      direct lattice vectors                 reciprocal lattice vectors
     3.830987447  0.000000000  0.000000000     0.261029307  0.000000000  0.000000000
     0.000000000  3.830987447  0.000000000     0.000000000  0.261029307  0.000000000
     0.000000000  0.000000000  9.619146228     0.000000000  0.000000000  0.103959330

  length of vectors
     3.830987447  3.830987447  9.619146228     0.261029307  0.261029307  0.103959330


 FORCES acting on ions
    electron-ion (+dipol)            ewald-force                    non-local-force                 convergence-correction
 -----------------------------------------------------------------------------------------------
   0.202E-14 0.430E-12 -.464E+02   -.949E-14 0.256E-14 0.505E+02   0.000E+00 0.136E-19 -.631E+01   -.138E-13 0.394E-13 0.138E+01
   0.127E-12 -.449E-12 -.464E+02   -.920E-14 0.290E-14 0.505E+02   0.000E+00 0.136E-19 -.631E+01   0.137E-14 0.810E-12 0.138E+01
   0.750E-14 -.816E-12 -.464E+02   -.133E-13 0.111E-14 0.505E+02   0.000E+00 -.122E-18 -.631E+01   0.270E-14 0.101E-12 0.138E+01
   0.130E-12 -.890E-12 -.464E+02   -.130E-13 0.103E-14 0.505E+02   0.000E+00 -.122E-18 -.631E+01   0.283E-14 0.132E-12 0.138E+01
   0.121E-12 -.397E-12 0.464E+02   0.641E-14 0.370E-15 -.505E+02   0.000E+00 -.136E-19 0.631E+01   -.653E-14 -.294E-12 -.138E+01
   -.278E-14 -.330E-12 0.464E+02   0.630E-14 0.707E-15 -.505E+02   0.000E+00 -.136E-19 0.631E+01   0.592E-14 -.562E-13 -.138E+01
   0.111E-12 0.117E-11 0.464E+02   0.126E-13 -.295E-14 -.505E+02   0.407E-19 0.542E-19 0.631E+01   0.190E-13 -.356E-13 -.138E+01
   -.679E-14 0.920E-12 0.464E+02   0.124E-13 -.304E-14 -.505E+02   0.136E-19 0.542E-19 0.631E+01   0.161E-13 -.157E-11 -.138E+01
   -.514E-16 0.335E-12 0.143E-12   0.354E-14 -.515E-14 -.213E-13   -.163E-18 0.407E-19 -.139E-16   -.840E-15 -.116E-13 -.451E-12
   -.464E-14 0.309E-12 0.196E-12   0.360E-14 -.512E-14 -.355E-13   0.000E+00 -.407E-19 -.139E-16   -.102E-14 0.602E-13 0.733E-12
   -.932E-15 -.325E-12 -.170E-12   -.229E-14 0.100E-14 -.997E-14   0.000E+00 0.678E-19 0.694E-17   -.209E-14 -.916E-14 0.109E-11
   -.287E-14 -.355E-12 -.139E-12   -.223E-14 0.784E-15 0.997E-14   0.163E-18 0.407E-19 0.694E-17   -.252E-14 -.653E-13 -.153E-11
 -----------------------------------------------------------------------------------------------
   0.481E-12 -.396E-12 0.270E-11   -.475E-14 -.581E-14 -.142E-13   0.542E-19 -.271E-19 -.139E-16   0.212E-13 -.903E-12 -.190E-11
 
 
 POSITION                                       TOTAL-FORCE (eV/Angst)
 -----------------------------------------------------------------------------------
      0.00000      0.00000      2.00070        -0.000000      0.000000     -0.892400
      1.91549      1.91549      6.81027        -0.000000      0.000000     -0.892400
      0.00000      1.91549      4.40549        -0.000000     -0.000000     -0.892400
      1.91549      0.00000      9.21506         0.000000      0.000000     -0.892400
      1.91549      0.00000      5.21366        -0.000000     -0.000000      0.892400
      0.00000      1.91549      0.40409         0.000000     -0.000000      0.892400
      1.91549      1.91549      2.80887        -0.000000     -0.000000      0.892400
      0.00000      0.00000      7.61845        -0.000000      0.000000      0.892400
      0.00000      0.00000      0.00000         0.000000      0.000000      0.000000
      1.91549      1.91549      4.80957         0.000000      0.000000      0.000000
      0.00000      1.91549      2.40479        -0.000000     -0.000000      0.000000
      1.91549      0.00000      7.21436        -0.000000     -0.000000      0.000000
 -----------------------------------------------------------------------------------
    total drift:                                0.000000     -0.000000      0.000000


--------------------------------------------------------------------------------------------------------



  FREE ENERGIE OF THE ION-ELECTRON SYSTEM (eV)
  ---------------------------------------------------
  free  energy   TOTEN  =      -104.03228422 eV

  energy  without entropy=     -104.03228422  energy(sigma->0) =     -104.03228422
 


--------------------------------------------------------------------------------------------------------


    POTLOK:  cpu time    0.0509: real time    0.0509


--------------------------------------------------------------------------------------------------------


 stress matrix after NEB project (eV)
      7.05671      0.00000      0.00000
      0.00000      7.05671      0.00000
      0.00000      0.00000      6.47814
  FORCES: max atom, RMS     0.892400    0.728642
  FORCE total and by dimension    2.524089    0.892400
  Stress total and by dimension   11.897930    7.056713
     LOOP+:  cpu time  222.0299: real time  223.1082
    4ORBIT:  cpu time    0.0000: real time    0.0000
 


 total charge     
 
# of ion     s       p       d       tot
----------------------------------------
  1        1.569   3.472   0.000   5.042
  2        1.569   3.472   0.000   5.042
  3        1.563   3.523   0.000   5.087
  4        1.563   3.523   0.000   5.087
  5        1.569   3.472   0.000   5.042
  6        1.569   3.472   0.000   5.042
  7        1.563   3.523   0.000   5.087
  8        1.563   3.523   0.000   5.087
  9        0.531   1.053   2.515   4.100
 10        0.531   1.053   2.515   4.100
 11        0.531   1.053   2.515   4.100
 12        0.531   1.053   2.515   4.100
------------------------------------------------
tot       14.657  32.195  10.061  56.913
 


 magnetization (x)
 
# of ion     s       p       d       tot
----------------------------------------
  1       -0.000  -0.000   0.000  -0.000
  2       -0.000  -0.000   0.000  -0.000
  3       -0.000  -0.000   0.000  -0.000
  4       -0.000  -0.000   0.000  -0.000
  5       -0.000  -0.000   0.000  -0.000
  6       -0.000  -0.000   0.000  -0.000
  7       -0.000  -0.000   0.000  -0.000
  8       -0.000  -0.000   0.000  -0.000
  9        0.000   0.000   0.000   0.000
 10        0.000   0.000   0.000   0.000
 11        0.000   0.000   0.000   0.000
 12        0.000   0.000   0.000   0.000
------------------------------------------------
tot       -0.000  -0.000   0.000  -0.000
 

 total amount of memory used by VASP on root node   361890. kBytes
========================================================================

   base      :      30000. kBytes
   nonl-proj :     252241. kBytes
   fftplans  :       1330. kBytes
   grid      :       9068. kBytes
   one-center:        259. kBytes
   wavefun   :      68992. kBytes
 
  
  
 General timing and accounting informations for this job:
 ========================================================
  
                  Total CPU time used (sec):      240.004
                            User time (sec):      238.247
                          System time (sec):        1.757
                         Elapsed time (sec):      242.138
  
                   Maximum memory used (kb):      445736.
                   Average memory used (kb):           0.
  
                          Minor page faults:        46169
                          Major page faults:            0
                 Voluntary context switches:         1468
